
Running Job 1 of 1 qchem.inp
qchem qchem.inp_389804.0 ./qchem.scratch/ 0
/gpfs/fs1/scinet/niagara/software/commercial/qc53/exe/qcprog.exe_s qchem.inp_389804.0 ./qchem.scratch/
                  Welcome to Q-Chem
     A Quantum Leap Into The Future Of Chemistry


 Q-Chem 5.3, Q-Chem, Inc., Pleasanton, CA (2020)

 License issued to: SRG Alan Aspuru-Guzik, University of Toronto

 Yihan Shao,  Zhengting Gan,  E. Epifanovsky,  A. T. B. Gilbert,  M. Wormit,  
 J. Kussmann,  A. W. Lange,  A. Behn,  Jia Deng,  Xintian Feng,  D. Ghosh,  
 M. Goldey,  P. R. Horn,  L. D. Jacobson,  I. Kaliman,  T. Kus,  A. Landau,  
 Jie Liu,  E. I. Proynov,  R. M. Richard,  R. P. Steele,  E. J. Sundstrom,  
 H. L. Woodcock III,  P. M. Zimmerman,  D. Zuev,  B. Alam,  B. Albrecht,  
 A. Aldossary,  E. Alguire,  S. A. Baeppler,  D. Barton,  Z. Benda,  
 Y. A. Bernard,  E. J. Berquist,  K. B. Bravaya,  H. Burton,  K. Carter-Fenk,  
 D. Casanova,  Chun-Min Chang,  Yunqing Chen,  A. Chien,  K. D. Closser,  
 M. P. Coons,  S. Coriani,  S. Dasgupta,  A. L. Dempwolff,  M. Diedenhofen,  
 Hainam Do,  R. G. Edgar,  Po-Tung Fang,  S. Faraji,  S. Fatehi,  
 Qingguo Feng,  J. Fosso-Tande,  J. Gayvert,  Qinghui Ge,  A. Ghysels,  
 G. Gidofalvi,  J. Gomes,  J. Gonthier,  S. Gulania,  A. Gunina,  D. Hait,  
 M. W. D. Hanson-Heine,  S. Hammes-Schiffer,  P. H. P. Harbach,  
 A. W. Hauser,  M. F. Herbst,  J. E. Herr,  E. G. Hohenstein,  Z. C. Holden,  
 S. Houck,  Kerwin Hui,  B. C. Huynh,  M. Ivanov,  T.-C. Jagau,  Hyunjun Ji,  
 B. Kaduk,  K. Khistyaev,  Jaehoon Kim,  P. Klunzinger,  K. Koh,  
 D. Kosenkov,  L. Koulias,  T. Kowalczyk,  C. M. Krauter,  A. Kunitsa,  
 Ka Un Lao,  A. Laurent,  K. V. Lawler,  Joonho Lee,  D. Lefrancois,  
 S. Lehtola,  D. S. Levine,  Yi-Pei Li,  You-Sheng Lin,  Fenglai Liu,  
 Kuan-Yu Liu,  E. Livshits,  M. Loipersberger,  A. Luenser,  A. Manjanath,  
 P. Manohar,  E. Mansoor,  S. F. Manzer,  Shan-Ping Mao,  Yuezhi Mao,  
 N. Mardirossian,  A. V. Marenich,  T. Markovich,  L. A. Martinez-Martinez,  
 S. A. Maurer,  N. J. Mayhall,  S. C. McKenzie,  J.-M. Mewes,  P. Morgante,  
 A. F. Morrison,  J. W. Mullinax,  K. Nanda,  T. S. Nguyen-Beck,  
 R. Olivares-Amaya,  K. J. Oosterbaan,  J. A. Parkhill,  S. K. Paul,  
 F. Pavosevic,  Zheng Pei,  T. M. Perrine,  F. Plasser,  P. Pokhilko,  
 S. Prager,  A. Prociuk,  E. Ramos,  B. Rana,  D. R. Rehn,  F. Rob,  
 E. Rossomme,  M. Scheurer,  M. Schneider,  N. Sergueev,  S. M. Sharada,  
 S. Sharma,  W. Skomorowski,  D. W. Small,  T. Stauch,  C. J. Stein,  
 T. Stein,  Yu-Chuan Su,  S. P. Veccham,  Zhen Tao,  A. J. W. Thom,  
 A. Tkatchenko,  T. Tsuchimochi,  N. M. Tubman,  L. Vogt,  M. L. Vidal,  
 O. Vydrov,  M. A. Watson,  J. Wenzel,  M. de Wergifosse,  T. A. Wesolowski,  
 A. White,  J. Witte,  A. Yamada,  Jun Yang,  K. Yao,  S. Yeganeh,  
 S. R. Yost,  Zhi-Qiang You,  A. Zech,  Igor Ying Zhang,  Xing Zhang,  
 Yan Zhao,  Ying Zhu,  B. R. Brooks,  G. K. L. Chan,  C. J. Cramer,  
 M. S. Gordon,  W. J. Hehre,  A. Klamt,  M. W. Schmidt,  C. D. Sherrill,  
 D. G. Truhlar,  A. Aspuru-Guzik,  R. Baer,  A. T. Bell,  N. A. Besley,  
 Jeng-Da Chai,  A. E. DePrince, III,  R. A. DiStasio Jr.,  A. Dreuw,  
 B. D. Dunietz,  T. R. Furlani,  Chao-Ping Hsu,  Yousung Jung,  Jing Kong,  
 D. S. Lambrecht,  WanZhen Liang,  C. Ochsenfeld,  V. A. Rassolov,  
 L. V. Slipchenko,  J. E. Subotnik,  T. Van Voorhis,  J. M. Herbert,  
 A. I. Krylov,  P. M. W. Gill,  M. Head-Gordon

 Contributors to earlier versions of Q-Chem not listed above: 
 R. D. Adamson,  B. Austin,  J. Baker,  G. J. O. Beran,  K. Brandhorst,  
 S. T. Brown,  E. F. C. Byrd,  A. K. Chakraborty,  C.-L. Cheng,  
 Siu Hung Chien,  D. M. Chipman,  D. L. Crittenden,  H. Dachsel,  
 R. J. Doerksen,  A. D. Dutoi,  L. Fusti-Molnar,  W. A. Goddard III,  
 A. Golubeva-Zadorozhnaya,  S. R. Gwaltney,  G. Hawkins,  A. Heyden,  
 S. Hirata,  G. Kedziora,  F. J. Keil,  C. Kelley,  Jihan Kim,  R. A. King,  
 R. Z. Khaliullin,  P. P. Korambath,  W. Kurlancheek,  A. M. Lee,  M. S. Lee,  
 S. V. Levchenko,  Ching Yeh Lin,  D. Liotard,  R. C. Lochan,  I. Lotan,  
 P. E. Maslen,  N. Nair,  D. P. O'Neill,  D. Neuhauser,  E. Neuscamman,  
 C. M. Oana,  R. Olson,  B. Peters,  R. Peverati,  P. A. Pieniazek,  
 Y. M. Rhee,  J. Ritchie,  M. A. Rohrdanz,  E. Rosta,  N. J. Russ,  
 H. F. Schaefer III,  N. E. Schultz,  N. Shenvi,  A. C. Simmonett,  A. Sodt,  
 D. Stuck,  K. S. Thanthiriwatte,  V. Vanovschi,  Tao Wang,  A. Warshel,  
 C. F. Williams,  Q. Wu,  X. Xu,  W. Zhang

 Please cite Q-Chem as follows:
 Y. Shao et al., Mol. Phys. 113, 184-215 (2015)
 DOI: 10.1080/00268976.2014.952696

 Q-Chem 5.3.2 for Intel X86 EM64T Linux

 Parts of Q-Chem use Armadillo 9.800.1 (Horizon Scraper).
 http://arma.sourceforge.net/

 Q-Chem begins on Tue Apr 20 14:27:47 2021  

Host: 
0

     Scratch files written to ./qchem.scratch//
 Dec820 |scratch|qcdevops|jenkins|workspace|build_RNUM 6959   
Processing $rem in /gpfs/fs1/scinet/niagara/software/commercial/qc53/config/preferences:
Processing $rem in /home/p/pbrumer/clavigne/.qchemrc:

Checking the input file for inconsistencies... 	...done.

--------------------------------------------------------------
User input:
--------------------------------------------------------------
$molecule
0 1
6   1.995002766965   0.142353068963   0.076741777919
6   4.852382050874   0.142353068963   0.076741777919
1   1.268667633727   1.714699690908   1.205815342824
1   1.268667633727   -1.621649576534   0.873884949044
1   1.268667633727   0.333990195256   -1.849512752634
1   5.578717184112   -0.049284057329   2.00297741121
1   5.578717184112   1.9063368172   -0.720420290468
1   5.578717184112   -1.430012450242   -1.052350684248
$end

$rem
method hf
basis 6-31g
scf_guess read
jobtype freq
input_bohr true
sym_ignore true
gui 2
hess_and_grad true
vibman_print 6
$end

$comment
this is a test run
$end
--------------------------------------------------------------
 ----------------------------------------------------------------
             Standard Nuclear Orientation (Bohr)
    I     Atom           X                Y                Z
 ----------------------------------------------------------------
    1      C       1.9950027670     0.1423530690     0.0767417779
    2      C       4.8523820509     0.1423530690     0.0767417779
    3      H       1.2686676337     1.7146996909     1.2058153428
    4      H       1.2686676337    -1.6216495765     0.8738849490
    5      H       1.2686676337     0.3339901953    -1.8495127526
    6      H       5.5787171841    -0.0492840573     2.0029774112
    7      H       5.5787171841     1.9063368172    -0.7204202905
    8      H       5.5787171841    -1.4300124502    -1.0523506842
 ----------------------------------------------------------------
 Nuclear Repulsion Energy =          42.42673663 hartrees
 There are        9 alpha and        9 beta electrons
 Requested basis set is 6-31G
 There are 18 shells and 30 basis functions

 Total QAlloc Memory Limit  20480 MB
 Mega-Array Size      2002 MB
 MEM_STATIC part      2048 MB

                       Distance Matrix (Bohrs)
             C (  1)   C (  2)   H (  3)   H (  4)   H (  5)   H (  6)
   C (  2)  2.857379
   H (  3)  2.067521  4.073093
   H (  4)  2.067536  4.073101  3.352820
   H (  5)  2.067545  4.073106  3.352818  3.352823
   H (  6)  4.073097  2.067528  4.724789  4.724797  5.793540
   H (  7)  4.073096  2.067527  4.724789  5.793533  4.724791  3.352812
   H (  8)  4.073106  2.067546  5.793536  4.724789  4.724796  3.352826
             H (  7)
   H (  8)  3.352820
 
 A cutoff of  1.0D-11 yielded    171 shell pairs
 There are       489 function pairs
 Smallest overlap matrix eigenvalue = 9.57E-03
 Guess MOs from SCF MO coefficient file

 -----------------------------------------------------------------------
  General SCF calculation program by
  Eric Jon Sundstrom, Paul Horn, Yuezhi Mao, Dmitri Zuev, Alec White,
  David Stuck, Shaama M.S., Shane Yost, Joonho Lee, David Small,
  Daniel Levine, Susi Lehtola, Hugh Burton, Evgeny Epifanovsky,
  Bang C. Huynh
 -----------------------------------------------------------------------
 Hartree-Fock
 using 8 threads for integral computing
 -------------------------------------------------------
 OpenMP Integral computing Module                
 Release: version 1.0, May 2013, Q-Chem Inc. Pittsburgh 
 -------------------------------------------------------
 A restricted SCF calculation will be
 performed using DIIS
 SCF converges when DIIS error is below 1.0e-08
 ---------------------------------------
  Cycle       Energy         DIIS error
 ---------------------------------------
    1     -79.1967812483      9.26e-11  
    2     -79.1967812486      6.17e-11  Convergence criterion met
 ---------------------------------------
 SCF time:   CPU 0.29s  wall 0.00s 
 SCF   energy in the final basis set =      -79.1967812486
 Total energy in the final basis set =      -79.1967812486
 
 --------------------------------------------------------------
 
                    Orbital Energies (a.u.)
 --------------------------------------------------------------
 
 Alpha MOs
 -- Occupied --
-11.2129 -11.2123  -1.0260  -0.8402  -0.6000  -0.6000  -0.5078  -0.4816
 -0.4816
 -- Virtual --
  0.2389   0.3021   0.3122   0.3122   0.3342   0.3342   0.4091   0.7293
  0.7674   0.7674   0.8598   0.8598   0.9662   1.2048   1.2048   1.2075
  1.2559   1.2631   1.2631   1.3086   1.7006
 --------------------------------------------------------------
 
          Ground-State Mulliken Net Atomic Charges

     Atom                 Charge (a.u.)
  ----------------------------------------
      1 C                    -0.450029
      2 C                    -0.450029
      3 H                     0.150011
      4 H                     0.150010
      5 H                     0.150009
      6 H                     0.150010
      7 H                     0.150010
      8 H                     0.150009
  ----------------------------------------
  Sum of atomic charges =     0.000000

 -----------------------------------------------------------------
                    Cartesian Multipole Moments
 -----------------------------------------------------------------
    Charge (ESU x 10^10)
                 0.0000
    Dipole Moment (Debye)
         X       0.0000      Y       0.0000      Z       0.0000
       Tot       0.0000
    Quadrupole Moments (Debye-Ang)
        XX     -15.7914     XY       0.0000     YY     -15.0374
        XZ       0.0000     YZ       0.0000     ZZ     -15.0374
    Octopole Moments (Debye-Ang^2)
       XXX     -85.8295    XXY      -1.1895    XYY     -27.2439
       YYY      -3.3982    XXZ      -0.6412    XYZ       0.0000
       YYZ      -0.6106    XZZ     -27.2439    YZZ      -1.1327
       ZZZ      -1.8319
    Hexadecapole Moments (Debye-Ang^3)
      XXXX    -403.4592   XXXY      -6.4652   XXYY     -68.8228
      XYYY      -5.8120   YYYY     -29.7653   XXXZ      -3.4853
      XXYZ      -0.0483   XYYZ      -2.2307   YYYZ      -0.1380
      XXZZ     -68.7592   XYZZ      -2.3969   YYZZ      -9.8612
      XZZZ      -2.1946   YZZZ      -0.1380   ZZZZ     -29.4021
 -----------------------------------------------------------------
 Calculating analytic gradient of the SCF energy
 Gradient of SCF Energy
            1           2           3           4           5           6
    1   0.0128353  -0.0128351   0.0002356   0.0002338   0.0002326  -0.0002347
    2   0.0000038   0.0000048   0.0059673  -0.0066989   0.0007277  -0.0007274
    3   0.0000067   0.0000036   0.0042844   0.0030264  -0.0073175   0.0073120
            7           8
    1  -0.0002347  -0.0002326
    2   0.0066957  -0.0059732
    3  -0.0030261  -0.0042896
 Max gradient component =       1.284E-02
 RMS gradient           =       5.220E-03
 Calculating MO derivatives via CPSCF
    1     0    27    0.0357029  
    2     0    27    0.0075761  
    3     0    27    0.0005962  
    4     0    27    0.0000731  
    5    24     3    0.0000046  
    6    27     0    0.0000002  Converged
 Time for AOints: 0.2 s (CPU) 0.0 s (wall)
 ------------------------------------------------------------------------------
                     AOints        : Timing summary (seconds)
 ------------------------------------------------------------------------------
     job step          cpu (% of tot)      sys (% of tot)     wall (% of tot)
 ------------------------------------------------------------------------------
  AOints            0.2053E+00 ( 7.8)   0.2000E-05 (10.5)   0.2571E-01 ( 7.8)
 ------------------------------------------------------------------------------
   Grand Totals     0.2622E+01          0.1900E-04          0.3299E+00
 ------------------------------------------------------------------------------
 Polarizability Matrix (a.u.)
            1           2           3
    1 -22.5510301   0.0000048  -0.0000406
    2   0.0000048 -22.3836507  -0.0000201
    3  -0.0000406  -0.0000201 -22.3836832
 Calculating analytic Hessian of the SCF energy
 
 Direct stationary perturbation theory relativistic correction:
 
 rels  =       0.019399364955
 relv  =      -0.073653809588
 rel2e =       0.022427772651
 E_rel =      -0.031826671981
 
 Hessian of the SCF Energy
            1           2           3           4           5           6
    1   0.5573579  -0.0000049  -0.0000078  -0.2410626  -0.0000002  -0.0000001
    2  -0.0000049   0.6187493   0.0000094   0.0000002  -0.0964862   0.0000007
    3  -0.0000078   0.0000094   0.6187404   0.0000002   0.0000007  -0.0964943
    4  -0.2410626   0.0000002   0.0000002   0.5573580   0.0000068   0.0000046
    5  -0.0000002  -0.0964862   0.0000007   0.0000068   0.6187368  -0.0000112
    6  -0.0000001   0.0000007  -0.0964943   0.0000046  -0.0000112   0.6187544
    7  -0.0890041   0.0639042   0.0458884  -0.0164288   0.0329075   0.0236304
    8   0.0673584  -0.2116613  -0.1068156  -0.0022350   0.0017202   0.0005139
    9   0.0483690  -0.1068160  -0.1396128  -0.0016049   0.0005141   0.0013737
   10  -0.0890029  -0.0716869   0.0323950  -0.0164287  -0.0369183   0.0166834
   11  -0.0755621  -0.2501202   0.0845983   0.0025073   0.0019050  -0.0004070
   12   0.0341464   0.0845989  -0.1011417  -0.0011330  -0.0004072   0.0011885
   13  -0.0890021   0.0077875  -0.0782758  -0.0164287   0.0040108  -0.0403138
   14   0.0082086  -0.0651214   0.0222075  -0.0002724   0.0010147  -0.0001069
   15  -0.0825075   0.0222072  -0.2861320   0.0027378  -0.0001069   0.0020782
   16  -0.0164288   0.0040107  -0.0403139  -0.0890036   0.0077882  -0.0782837
   17  -0.0002724   0.0010148  -0.0001069   0.0082091  -0.0651196   0.0222095
   18   0.0027379  -0.0001069   0.0020786  -0.0825154   0.0222099  -0.2861485
   19  -0.0164287  -0.0369183   0.0166836  -0.0890035  -0.0716901   0.0323973
   20   0.0025074   0.0019052  -0.0004070  -0.0755654  -0.2501245   0.0846042
   21  -0.0011331  -0.0004072   0.0011885   0.0341484   0.0846042  -0.1011446
   22  -0.0164286   0.0329075   0.0236302  -0.0890021   0.0638953   0.0458820
   23  -0.0022349   0.0017198   0.0005137   0.0673494  -0.2116464  -0.1068033
   24  -0.0016048   0.0005139   0.0013734   0.0483624  -0.1068036  -0.1396073
            7           8           9          10          11          12
    1  -0.0890041   0.0673584   0.0483690  -0.0890029  -0.0755621   0.0341464
    2   0.0639042  -0.2116613  -0.1068160  -0.0716869  -0.2501202   0.0845989
    3   0.0458884  -0.1068156  -0.1396128   0.0323950   0.0845983  -0.1011417
    4  -0.0164288  -0.0022350  -0.0016049  -0.0164287   0.0025073  -0.0011330
    5   0.0329075   0.0017202   0.0005141  -0.0369183   0.0019050  -0.0004072
    6   0.0236304   0.0005139   0.0013737   0.0166834  -0.0004070   0.0011885
    7   0.1004320  -0.0752018  -0.0540010   0.0047710  -0.0100628  -0.0078197
    8  -0.0752018   0.2283370   0.1214210   0.0114062  -0.0244431  -0.0189025
    9  -0.0540010   0.1214210   0.1464375  -0.0056838   0.0121748   0.0090340
   10   0.0047710   0.0114062  -0.0056838   0.1004309   0.0843616  -0.0381226
   11  -0.0100628  -0.0244431   0.0121748   0.0843616   0.2720564  -0.0961671
   12  -0.0078197  -0.0189025   0.0090340  -0.0381226  -0.0961671   0.1027064
   13   0.0047709  -0.0017406   0.0126242   0.0047708  -0.0007808   0.0127195
   14  -0.0106252   0.0035779  -0.0283526   0.0118031  -0.0022488   0.0317165
   15  -0.0070362   0.0027245  -0.0189874  -0.0048046   0.0006397  -0.0131609
   16   0.0018631   0.0005256   0.0002831   0.0018631  -0.0005710   0.0001740
   17   0.0001348  -0.0001587   0.0004790  -0.0000176   0.0000887  -0.0006218
   18  -0.0005815   0.0006091   0.0007993  -0.0005967  -0.0007519   0.0005519
   19   0.0018630   0.0004362   0.0004075  -0.0082672   0.0006157  -0.0002782
   20  -0.0005080   0.0010310   0.0002078   0.0006157   0.0017310  -0.0002946
   21   0.0003136   0.0000778  -0.0003904  -0.0002782  -0.0002946   0.0012122
   22  -0.0082672  -0.0005489  -0.0003941   0.0018630  -0.0005079   0.0003136
   23  -0.0005488   0.0015970   0.0003719   0.0004362   0.0010310   0.0000778
   24  -0.0003940   0.0003719   0.0013461   0.0004075   0.0002079  -0.0003904
           13          14          15          16          17          18
    1  -0.0890021   0.0082086  -0.0825075  -0.0164288  -0.0002724   0.0027379
    2   0.0077875  -0.0651214   0.0222072   0.0040107   0.0010148  -0.0001069
    3  -0.0782758   0.0222075  -0.2861320  -0.0403139  -0.0001069   0.0020786
    4  -0.0164287  -0.0002724   0.0027378  -0.0890036   0.0082091  -0.0825154
    5   0.0040108   0.0010147  -0.0001069   0.0077882  -0.0651196   0.0222099
    6  -0.0403138  -0.0001069   0.0020782  -0.0782837   0.0222095  -0.2861485
    7   0.0047709  -0.0106252  -0.0070362   0.0018631   0.0001348  -0.0005815
    8  -0.0017406   0.0035779   0.0027245   0.0005256  -0.0001587   0.0006091
    9   0.0126242  -0.0283526  -0.0189874   0.0002831   0.0004790   0.0007993
   10   0.0047708   0.0118031  -0.0048046   0.0018631  -0.0000176  -0.0005967
   11  -0.0007808  -0.0022488   0.0006397  -0.0005710   0.0000887  -0.0007519
   12   0.0127195   0.0317165  -0.0131609   0.0001740  -0.0006218   0.0005519
   13   0.1004302  -0.0091645   0.0921164  -0.0082672  -0.0000669   0.0006723
   14  -0.0091645   0.0617608  -0.0252444  -0.0000669   0.0010868  -0.0000773
   15   0.0921164  -0.0252444   0.3129945   0.0006722  -0.0000773   0.0018564
   16  -0.0082672  -0.0000669   0.0006722   0.1004316  -0.0091652   0.0921242
   17  -0.0000669   0.0010868  -0.0000773  -0.0091652   0.0617589  -0.0252465
   18   0.0006723  -0.0000773   0.0018564   0.0921242  -0.0252465   0.3130102
   19   0.0018631  -0.0000176  -0.0005967   0.0047710   0.0118034  -0.0048048
   20  -0.0005710   0.0000887  -0.0007519  -0.0007808  -0.0022485   0.0006394
   21   0.0001740  -0.0006219   0.0005520   0.0127198   0.0317167  -0.0131609
   22   0.0018630   0.0001349  -0.0005815   0.0047708  -0.0106252  -0.0070360
   23   0.0005255  -0.0001587   0.0006091  -0.0017406   0.0035777   0.0027243
   24   0.0002831   0.0004790   0.0007994   0.0126242  -0.0283526  -0.0189870
           19          20          21          22          23          24
    1  -0.0164287   0.0025074  -0.0011331  -0.0164286  -0.0022349  -0.0016048
    2  -0.0369183   0.0019052  -0.0004072   0.0329075   0.0017198   0.0005139
    3   0.0166836  -0.0004070   0.0011885   0.0236302   0.0005137   0.0013734
    4  -0.0890035  -0.0755654   0.0341484  -0.0890021   0.0673494   0.0483624
    5  -0.0716901  -0.2501245   0.0846042   0.0638953  -0.2116464  -0.1068036
    6   0.0323973   0.0846042  -0.1011446   0.0458820  -0.1068033  -0.1396073
    7   0.0018630  -0.0005080   0.0003136  -0.0082672  -0.0005488  -0.0003940
    8   0.0004362   0.0010310   0.0000778  -0.0005489   0.0015970   0.0003719
    9   0.0004075   0.0002078  -0.0003904  -0.0003941   0.0003719   0.0013461
   10  -0.0082672   0.0006157  -0.0002782   0.0018630   0.0004362   0.0004075
   11   0.0006157   0.0017310  -0.0002946  -0.0005079   0.0010310   0.0002079
   12  -0.0002782  -0.0002946   0.0012122   0.0003136   0.0000778  -0.0003904
   13   0.0018631  -0.0005710   0.0001740   0.0018630   0.0005255   0.0002831
   14  -0.0000176   0.0000887  -0.0006219   0.0001349  -0.0001587   0.0004790
   15  -0.0005967  -0.0007519   0.0005520  -0.0005815   0.0006091   0.0007994
   16   0.0047710  -0.0007808   0.0127198   0.0047708  -0.0017406   0.0126242
   17   0.0118034  -0.0022485   0.0317167  -0.0106252   0.0035777  -0.0283526
   18  -0.0048048   0.0006394  -0.0131609  -0.0070360   0.0027243  -0.0189870
   19   0.1004314   0.0843647  -0.0381250   0.0047709   0.0114061  -0.0056836
   20   0.0843647   0.2720607  -0.0961725  -0.0100626  -0.0244435   0.0121746
   21  -0.0381250  -0.0961725   0.1027093  -0.0078195  -0.0189025   0.0090339
   22   0.0047709  -0.0100626  -0.0078195   0.1004301  -0.0751930  -0.0539947
   23   0.0114061  -0.0244435  -0.0189025  -0.0751930   0.2283231   0.1214090
   24  -0.0056836   0.0121746   0.0090339  -0.0539947   0.1214090   0.1464319

 Mass-Weighted Hessian Matrix:


     0.046446   -0.000000   -0.000001   -0.020089   -0.000000   -0.000000
    -0.000000    0.051562    0.000001    0.000000   -0.008041    0.000000
    -0.000001    0.000001    0.051562    0.000000    0.000000   -0.008041
    -0.020089    0.000000    0.000000    0.046446    0.000001    0.000000
    -0.000000   -0.008041    0.000000    0.000001    0.051561   -0.000001
    -0.000000    0.000000   -0.008041    0.000000   -0.000001    0.051563
    -0.025593    0.018376    0.013195   -0.004724    0.009463    0.006795
     0.019369   -0.060864   -0.030715   -0.000643    0.000495    0.000148
     0.013909   -0.030715   -0.040146   -0.000462    0.000148    0.000395
    -0.025593   -0.020614    0.009315   -0.004724   -0.010616    0.004797
    -0.021728   -0.071922    0.024326    0.000721    0.000548   -0.000117
     0.009819    0.024327   -0.029083   -0.000326   -0.000117    0.000342
    -0.025593    0.002239   -0.022508   -0.004724    0.001153   -0.011592
     0.002360   -0.018726    0.006386   -0.000078    0.000292   -0.000031
    -0.023725    0.006386   -0.082278    0.000787   -0.000031    0.000598
    -0.004724    0.001153   -0.011592   -0.025593    0.002240   -0.022511
    -0.000078    0.000292   -0.000031    0.002361   -0.018725    0.006386
     0.000787   -0.000031    0.000598   -0.023727    0.006386   -0.082282
    -0.004724   -0.010616    0.004797   -0.025593   -0.020615    0.009316
     0.000721    0.000548   -0.000117   -0.021729   -0.071924    0.024328
    -0.000326   -0.000117    0.000342    0.009819    0.024328   -0.029084
    -0.004724    0.009463    0.006795   -0.025593    0.018373    0.013193
    -0.000643    0.000495    0.000148    0.019366   -0.060859   -0.030711
    -0.000461    0.000148    0.000395    0.013907   -0.030712   -0.040144


    -0.025593    0.019369    0.013909   -0.025593   -0.021728    0.009819
     0.018376   -0.060864   -0.030715   -0.020614   -0.071922    0.024327
     0.013195   -0.030715   -0.040146    0.009315    0.024326   -0.029083
    -0.004724   -0.000643   -0.000462   -0.004724    0.000721   -0.000326
     0.009463    0.000495    0.000148   -0.010616    0.000548   -0.000117
     0.006795    0.000148    0.000395    0.004797   -0.000117    0.000342
     0.099652   -0.074618   -0.053581    0.004734   -0.009985   -0.007759
    -0.074618    0.226563    0.120478    0.011318   -0.024253   -0.018756
    -0.053581    0.120478    0.145300   -0.005640    0.012080    0.008964
     0.004734    0.011318   -0.005640    0.099651    0.083706   -0.037826
    -0.009985   -0.024253    0.012080    0.083706    0.269943   -0.095420
    -0.007759   -0.018756    0.008964   -0.037826   -0.095420    0.101908
     0.004734   -0.001727    0.012526    0.004734   -0.000775    0.012621
    -0.010543    0.003550   -0.028132    0.011711   -0.002231    0.031470
    -0.006981    0.002703   -0.018840   -0.004767    0.000635   -0.013059
     0.001849    0.000521    0.000281    0.001849   -0.000567    0.000173
     0.000134   -0.000157    0.000475   -0.000017    0.000088   -0.000617
    -0.000577    0.000604    0.000793   -0.000592   -0.000746    0.000548
     0.001849    0.000433    0.000404   -0.008203    0.000611   -0.000276
    -0.000504    0.001023    0.000206    0.000611    0.001718   -0.000292
     0.000311    0.000077   -0.000387   -0.000276   -0.000292    0.001203
    -0.008203   -0.000545   -0.000391    0.001849   -0.000504    0.000311
    -0.000544    0.001585    0.000369    0.000433    0.001023    0.000077
    -0.000391    0.000369    0.001336    0.000404    0.000206   -0.000387


    -0.025593    0.002360   -0.023725   -0.004724   -0.000078    0.000787
     0.002239   -0.018726    0.006386    0.001153    0.000292   -0.000031
    -0.022508    0.006386   -0.082278   -0.011592   -0.000031    0.000598
    -0.004724   -0.000078    0.000787   -0.025593    0.002361   -0.023727
     0.001153    0.000292   -0.000031    0.002240   -0.018725    0.006386
    -0.011592   -0.000031    0.000598   -0.022511    0.006386   -0.082282
     0.004734   -0.010543   -0.006981    0.001849    0.000134   -0.000577
    -0.001727    0.003550    0.002703    0.000521   -0.000157    0.000604
     0.012526   -0.028132   -0.018840    0.000281    0.000475    0.000793
     0.004734    0.011711   -0.004767    0.001849   -0.000017   -0.000592
    -0.000775   -0.002231    0.000635   -0.000567    0.000088   -0.000746
     0.012621    0.031470   -0.013059    0.000173   -0.000617    0.000548
     0.099650   -0.009093    0.091401   -0.008203   -0.000066    0.000667
    -0.009093    0.061281   -0.025048   -0.000066    0.001078   -0.000077
     0.091401   -0.025048    0.310563    0.000667   -0.000077    0.001842
    -0.008203   -0.000066    0.000667    0.099651   -0.009094    0.091408
    -0.000066    0.001078   -0.000077   -0.009094    0.061279   -0.025050
     0.000667   -0.000077    0.001842    0.091408   -0.025050    0.310578
     0.001849   -0.000017   -0.000592    0.004734    0.011712   -0.004767
    -0.000567    0.000088   -0.000746   -0.000775   -0.002231    0.000634
     0.000173   -0.000617    0.000548    0.012621    0.031470   -0.013059
     0.001849    0.000134   -0.000577    0.004734   -0.010543   -0.006981
     0.000521   -0.000157    0.000604   -0.001727    0.003550    0.002703
     0.000281    0.000475    0.000793    0.012526   -0.028132   -0.018839


    -0.004724    0.000721   -0.000326   -0.004724   -0.000643   -0.000461
    -0.010616    0.000548   -0.000117    0.009463    0.000495    0.000148
     0.004797   -0.000117    0.000342    0.006795    0.000148    0.000395
    -0.025593   -0.021729    0.009819   -0.025593    0.019366    0.013907
    -0.020615   -0.071924    0.024328    0.018373   -0.060859   -0.030712
     0.009316    0.024328   -0.029084    0.013193   -0.030711   -0.040144
     0.001849   -0.000504    0.000311   -0.008203   -0.000544   -0.000391
     0.000433    0.001023    0.000077   -0.000545    0.001585    0.000369
     0.000404    0.000206   -0.000387   -0.000391    0.000369    0.001336
    -0.008203    0.000611   -0.000276    0.001849    0.000433    0.000404
     0.000611    0.001718   -0.000292   -0.000504    0.001023    0.000206
    -0.000276   -0.000292    0.001203    0.000311    0.000077   -0.000387
     0.001849   -0.000567    0.000173    0.001849    0.000521    0.000281
    -0.000017    0.000088   -0.000617    0.000134   -0.000157    0.000475
    -0.000592   -0.000746    0.000548   -0.000577    0.000604    0.000793
     0.004734   -0.000775    0.012621    0.004734   -0.001727    0.012526
     0.011712   -0.002231    0.031470   -0.010543    0.003550   -0.028132
    -0.004767    0.000634   -0.013059   -0.006981    0.002703   -0.018839
     0.099651    0.083709   -0.037829    0.004734    0.011317   -0.005639
     0.083709    0.269947   -0.095425   -0.009984   -0.024254    0.012080
    -0.037829   -0.095425    0.101911   -0.007759   -0.018756    0.008964
     0.004734   -0.009984   -0.007759    0.099650   -0.074609   -0.053575
     0.011317   -0.024254   -0.018756   -0.074609    0.226549    0.120466
    -0.005639    0.012080    0.008964   -0.053575    0.120466    0.145294

 Vectors for Translations and Rotations


     0.631961    0.000000    0.000000    0.000000   -0.000000   -0.000001
     0.000000    0.631961    0.000000    0.000002    0.377190   -0.367160
     0.000000    0.000000    0.631961   -0.000001   -0.367161   -0.377190
     0.631961    0.000000    0.000000    0.000000   -0.000000   -0.000001
     0.000000    0.631961    0.000000    0.000001   -0.377190    0.367160
     0.000000    0.000000    0.631961   -0.000001    0.367161    0.377190
     0.183144    0.000000    0.000000    0.000000    0.036212   -0.203491
     0.000000    0.183144    0.000000    0.238121    0.164884   -0.160499
     0.000000    0.000000    0.183144   -0.331607   -0.160499   -0.164884
     0.183144    0.000000    0.000000   -0.000000   -0.194335    0.070387
     0.000000    0.183144    0.000000    0.168117    0.164884   -0.160499
     0.000000    0.000000    0.183144    0.372026   -0.160499   -0.164884
     0.183144    0.000000    0.000000    0.000000    0.158124    0.133108
     0.000000    0.183144    0.000000   -0.406245    0.164884   -0.160499
     0.000000    0.000000    0.183144   -0.040416   -0.160499   -0.164884
     0.183144    0.000000    0.000000   -0.000000   -0.158122   -0.133107
     0.000000    0.183144    0.000000    0.406242   -0.164884    0.160499
     0.000000    0.000000    0.183144    0.040416    0.160499    0.164884
     0.183144    0.000000    0.000000    0.000000    0.194335   -0.070384
     0.000000    0.183144    0.000000   -0.168121   -0.164884    0.160499
     0.000000    0.000000    0.183144   -0.372023    0.160499    0.164884
     0.183144    0.000000    0.000000   -0.000000   -0.036213    0.203493
     0.000000    0.183144    0.000000   -0.238124   -0.164884    0.160499
     0.000000    0.000000    0.183144    0.331610    0.160499    0.164884

 The Projection Matrix


     0.600625   -0.000000   -0.000000   -0.399375    0.000000    0.000000
    -0.000000    0.323546    0.000000   -0.000000   -0.122295   -0.000000
    -0.000000    0.000000    0.323546   -0.000000   -0.000000   -0.122295
    -0.399375   -0.000000   -0.000000    0.600625    0.000000    0.000000
     0.000000   -0.122295   -0.000000    0.000000    0.323546    0.000000
     0.000000   -0.000000   -0.122295    0.000000    0.000000    0.323546
    -0.115740   -0.088373   -0.063459   -0.115740    0.088373    0.063459
    -0.000000   -0.236862    0.000000   -0.000000    0.005381    0.000000
    -0.000000    0.000001   -0.236862   -0.000000    0.000000    0.005381
    -0.115740    0.099144   -0.044803   -0.115740   -0.099144    0.044803
    -0.000000   -0.236862    0.000000   -0.000000    0.005381    0.000000
    -0.000000   -0.000001   -0.236861   -0.000000   -0.000000    0.005382
    -0.115740   -0.010771    0.108264   -0.115740    0.010771   -0.108264
    -0.000000   -0.236861   -0.000000   -0.000000    0.005382   -0.000000
    -0.000000    0.000000   -0.236862   -0.000000    0.000000    0.005382
    -0.115740    0.010771   -0.108263   -0.115740   -0.010771    0.108263
     0.000000    0.005381    0.000000    0.000000   -0.236862    0.000000
     0.000000   -0.000000    0.005382    0.000000   -0.000000   -0.236862
    -0.115740   -0.099144    0.044804   -0.115740    0.099144   -0.044804
     0.000000    0.005382   -0.000000    0.000000   -0.236861   -0.000000
     0.000000    0.000001    0.005381    0.000000    0.000000   -0.236862
    -0.115740    0.088374    0.063460   -0.115740   -0.088374   -0.063460
     0.000000    0.005382   -0.000000    0.000000   -0.236861   -0.000000
     0.000000   -0.000001    0.005382    0.000000   -0.000000   -0.236861


    -0.115740   -0.000000   -0.000000   -0.115740   -0.000000   -0.000000
    -0.088373   -0.236862    0.000001    0.099144   -0.236862   -0.000001
    -0.063459    0.000000   -0.236862   -0.044803    0.000000   -0.236861
    -0.115740   -0.000000   -0.000000   -0.115740   -0.000000   -0.000000
     0.088373    0.005381    0.000000   -0.099144    0.005381   -0.000000
     0.063459    0.000000    0.005381    0.044803    0.000000    0.005382
     0.923738   -0.038631   -0.027740   -0.012181   -0.038631   -0.027740
    -0.038631    0.856810    0.078963    0.043340   -0.126521   -0.088587
    -0.027740    0.078963    0.803548   -0.019585    0.055749    0.036878
    -0.012181    0.043340   -0.019585    0.923738    0.043340   -0.019585
    -0.038631   -0.126521    0.055749    0.043340    0.885248   -0.062544
    -0.027740   -0.088587    0.036878   -0.019585   -0.062544    0.775108
    -0.012182   -0.004708    0.047326   -0.012182   -0.004708    0.047326
    -0.038631    0.010247   -0.134714    0.043340   -0.018192    0.151134
    -0.027740    0.009624   -0.099891   -0.019585    0.006795   -0.071453
    -0.054902    0.004708   -0.047326   -0.054902    0.004708   -0.047326
     0.038631   -0.077330    0.134712   -0.043340   -0.048891   -0.151133
     0.027740   -0.009624    0.032807    0.019585   -0.006795    0.004369
    -0.054902   -0.043339    0.019585    0.009178   -0.043339    0.019585
     0.038631    0.059438   -0.055750   -0.043340    0.047669    0.062545
     0.027740    0.088587   -0.103960    0.019585    0.062544    0.157807
     0.009178    0.038631    0.027741   -0.054902    0.038631    0.027741
     0.038631    0.076107   -0.078964   -0.043340    0.059438    0.088589
     0.027740   -0.078963    0.129369    0.019585   -0.055749   -0.103963


    -0.115740   -0.000000   -0.000000   -0.115740    0.000000    0.000000
    -0.010771   -0.236861    0.000000    0.010771    0.005381   -0.000000
     0.108264   -0.000000   -0.236862   -0.108263    0.000000    0.005382
    -0.115740   -0.000000   -0.000000   -0.115740    0.000000    0.000000
     0.010771    0.005382    0.000000   -0.010771   -0.236862   -0.000000
    -0.108264   -0.000000    0.005382    0.108263    0.000000   -0.236862
    -0.012182   -0.038631   -0.027740   -0.054902    0.038631    0.027740
    -0.004708    0.010247    0.009624    0.004708   -0.077330   -0.009624
     0.047326   -0.134714   -0.099891   -0.047326    0.134712    0.032807
    -0.012182    0.043340   -0.019585   -0.054902   -0.043340    0.019585
    -0.004708   -0.018192    0.006795    0.004708   -0.048891   -0.006795
     0.047326    0.151134   -0.071453   -0.047326   -0.151133    0.004369
     0.923737   -0.004708    0.047326    0.009179    0.004708   -0.047326
    -0.004708    0.748477   -0.016419    0.004708    0.184438    0.016419
     0.047326   -0.016419    0.911878   -0.047326    0.016419    0.021038
     0.009179    0.004708   -0.047326    0.923738   -0.004708    0.047326
     0.004708    0.184438    0.016419   -0.004708    0.748479   -0.016419
    -0.047326    0.016419    0.021038    0.047326   -0.016419    0.911878
    -0.054902   -0.043339    0.019585   -0.012182    0.043339   -0.019585
     0.004708   -0.048893   -0.006795   -0.004708   -0.018191    0.006795
    -0.047326   -0.151132    0.004369    0.047326    0.151131   -0.071453
    -0.054902    0.038631    0.027741   -0.012182   -0.038631   -0.027741
     0.004708   -0.077332   -0.009624   -0.004708    0.010248    0.009624
    -0.047326    0.134715    0.032807    0.047326   -0.134714   -0.099891


    -0.115740    0.000000    0.000000   -0.115740    0.000000    0.000000
    -0.099144    0.005382    0.000001    0.088374    0.005382   -0.000001
     0.044804   -0.000000    0.005381    0.063460   -0.000000    0.005382
    -0.115740    0.000000    0.000000   -0.115740    0.000000    0.000000
     0.099144   -0.236861    0.000000   -0.088374   -0.236861   -0.000000
    -0.044804   -0.000000   -0.236862   -0.063460   -0.000000   -0.236861
    -0.054902    0.038631    0.027740    0.009178    0.038631    0.027740
    -0.043339    0.059438    0.088587    0.038631    0.076107   -0.078963
     0.019585   -0.055750   -0.103960    0.027741   -0.078964    0.129369
     0.009178   -0.043340    0.019585   -0.054902   -0.043340    0.019585
    -0.043339    0.047669    0.062544    0.038631    0.059438   -0.055749
     0.019585    0.062545    0.157807    0.027741    0.088589   -0.103963
    -0.054902    0.004708   -0.047326   -0.054902    0.004708   -0.047326
    -0.043339   -0.048893   -0.151132    0.038631   -0.077332    0.134715
     0.019585   -0.006795    0.004369    0.027741   -0.009624    0.032807
    -0.012182   -0.004708    0.047326   -0.012182   -0.004708    0.047326
     0.043339   -0.018191    0.151131   -0.038631    0.010248   -0.134714
    -0.019585    0.006795   -0.071453   -0.027741    0.009624   -0.099891
     0.923738    0.043339   -0.019585   -0.012182    0.043339   -0.019585
     0.043339    0.885247   -0.062545   -0.038631   -0.126522    0.055751
    -0.019585   -0.062545    0.775110   -0.027741   -0.088588    0.036878
    -0.012182   -0.038631   -0.027741    0.923737   -0.038631   -0.027741
     0.043339   -0.126522   -0.088588   -0.038631    0.856808    0.078965
    -0.019585    0.055751    0.036878   -0.027741    0.078965    0.803546

 Translations and Rotations Projected Out of Hessian

 Projected Mass-Weighted Hessian Matrix:


     0.046446   -0.000000   -0.000001   -0.020089    0.000000    0.000000
    -0.000000    0.051987    0.000001   -0.000000   -0.008465    0.000000
    -0.000001    0.000001    0.051986   -0.000000    0.000000   -0.008465
    -0.020089   -0.000000   -0.000000    0.046446    0.000001    0.000000
     0.000000   -0.008465    0.000000    0.000001    0.051986   -0.000001
     0.000000    0.000000   -0.008465    0.000000   -0.000001    0.051987
    -0.025593    0.018112    0.013006   -0.004724    0.009726    0.006984
     0.019369   -0.060756   -0.030715   -0.000643    0.000387    0.000148
     0.013909   -0.030715   -0.040038   -0.000462    0.000148    0.000287
    -0.025593   -0.020318    0.009181   -0.004724   -0.010912    0.004931
    -0.021728   -0.071815    0.024326    0.000721    0.000440   -0.000117
     0.009819    0.024326   -0.028976   -0.000326   -0.000117    0.000234
    -0.025593    0.002207   -0.022185   -0.004724    0.001185   -0.011916
     0.002360   -0.018618    0.006386   -0.000078    0.000184   -0.000031
    -0.023725    0.006386   -0.082170    0.000787   -0.000031    0.000490
    -0.004724    0.001185   -0.011915   -0.025593    0.002207   -0.022187
    -0.000078    0.000184   -0.000031    0.002361   -0.018617    0.006387
     0.000787   -0.000031    0.000490   -0.023727    0.006386   -0.082175
    -0.004724   -0.010912    0.004931   -0.025593   -0.020319    0.009182
     0.000721    0.000440   -0.000117   -0.021729   -0.071816    0.024328
    -0.000326   -0.000117    0.000234    0.009819    0.024328   -0.028977
    -0.004724    0.009727    0.006985   -0.025593    0.018109    0.013004
    -0.000643    0.000387    0.000148    0.019366   -0.060751   -0.030712
    -0.000461    0.000148    0.000287    0.013907   -0.030712   -0.040036


    -0.025593    0.019369    0.013909   -0.025593   -0.021728    0.009819
     0.018112   -0.060756   -0.030715   -0.020318   -0.071815    0.024326
     0.013006   -0.030715   -0.040038    0.009181    0.024326   -0.028976
    -0.004724   -0.000643   -0.000462   -0.004724    0.000721   -0.000326
     0.009726    0.000387    0.000148   -0.010912    0.000440   -0.000117
     0.006984    0.000148    0.000287    0.004931   -0.000117    0.000234
     0.099331   -0.074758   -0.053682    0.004894   -0.010125   -0.007859
    -0.074758    0.226363    0.120775    0.011475   -0.024391   -0.019089
    -0.053682    0.120775    0.144899   -0.005711    0.012290    0.009442
     0.004894    0.011475   -0.005711    0.099330    0.083863   -0.037897
    -0.010125   -0.024391    0.012290    0.083863    0.269849   -0.095656
    -0.007859   -0.019089    0.009442   -0.037897   -0.095656    0.101400
     0.004894   -0.001744    0.012698    0.004894   -0.000792    0.012792
    -0.010683    0.003928   -0.028640    0.011869   -0.001961    0.032040
    -0.007082    0.002740   -0.018877   -0.004838    0.000660   -0.012989
     0.001688    0.000539    0.000109    0.001688   -0.000550    0.000001
     0.000274   -0.000535    0.000982   -0.000175   -0.000182   -0.001186
    -0.000477    0.000568    0.000830   -0.000521   -0.000772    0.000478
     0.001688    0.000276    0.000475   -0.007883    0.000454   -0.000205
    -0.000364    0.001160   -0.000004    0.000454    0.001811   -0.000057
     0.000412    0.000411   -0.000865   -0.000205   -0.000057    0.001711
    -0.007883   -0.000404   -0.000290    0.001688   -0.000364    0.000412
    -0.000404    0.001785    0.000071    0.000276    0.001161    0.000411
    -0.000290    0.000072    0.001737    0.000475   -0.000004   -0.000866


    -0.025593    0.002360   -0.023725   -0.004724   -0.000078    0.000787
     0.002207   -0.018618    0.006386    0.001185    0.000184   -0.000031
    -0.022185    0.006386   -0.082170   -0.011915   -0.000031    0.000490
    -0.004724   -0.000078    0.000787   -0.025593    0.002361   -0.023727
     0.001185    0.000184   -0.000031    0.002207   -0.018617    0.006386
    -0.011916   -0.000031    0.000490   -0.022187    0.006387   -0.082175
     0.004894   -0.010683   -0.007082    0.001688    0.000274   -0.000477
    -0.001744    0.003928    0.002740    0.000539   -0.000535    0.000568
     0.012698   -0.028640   -0.018877    0.000109    0.000982    0.000830
     0.004894    0.011869   -0.004838    0.001688   -0.000175   -0.000521
    -0.000792   -0.001961    0.000660   -0.000550   -0.000182   -0.000772
     0.012792    0.032040   -0.012989    0.000001   -0.001186    0.000478
     0.099329   -0.009110    0.091572   -0.007882   -0.000049    0.000495
    -0.009110    0.060672   -0.025110   -0.000049    0.001687   -0.000015
     0.091572   -0.025110    0.310570    0.000495   -0.000015    0.001835
    -0.007882   -0.000049    0.000495    0.099331   -0.009111    0.091580
    -0.000049    0.001687   -0.000015   -0.009111    0.060671   -0.025112
     0.000495   -0.000015    0.001835    0.091580   -0.025112    0.310585
     0.001688   -0.000175   -0.000521    0.004894    0.011869   -0.004838
    -0.000550   -0.000183   -0.000772   -0.000792   -0.001961    0.000660
     0.000001   -0.001186    0.000478    0.012793    0.032039   -0.012989
     0.001688    0.000274   -0.000476    0.004894   -0.010683   -0.007082
     0.000539   -0.000535    0.000568   -0.001744    0.003928    0.002739
     0.000109    0.000983    0.000831    0.012698   -0.028640   -0.018877


    -0.004724    0.000721   -0.000326   -0.004724   -0.000643   -0.000461
    -0.010912    0.000440   -0.000117    0.009727    0.000387    0.000148
     0.004931   -0.000117    0.000234    0.006985    0.000148    0.000287
    -0.025593   -0.021729    0.009819   -0.025593    0.019366    0.013907
    -0.020319   -0.071816    0.024328    0.018109   -0.060751   -0.030712
     0.009182    0.024328   -0.028977    0.013004   -0.030712   -0.040036
     0.001688   -0.000364    0.000412   -0.007883   -0.000404   -0.000290
     0.000276    0.001160    0.000411   -0.000404    0.001785    0.000072
     0.000475   -0.000004   -0.000865   -0.000290    0.000071    0.001737
    -0.007883    0.000454   -0.000205    0.001688    0.000276    0.000475
     0.000454    0.001811   -0.000057   -0.000364    0.001161   -0.000004
    -0.000205   -0.000057    0.001711    0.000412    0.000411   -0.000866
     0.001688   -0.000550    0.000001    0.001688    0.000539    0.000109
    -0.000175   -0.000183   -0.001186    0.000274   -0.000535    0.000983
    -0.000521   -0.000772    0.000478   -0.000476    0.000568    0.000831
     0.004894   -0.000792    0.012793    0.004894   -0.001744    0.012698
     0.011869   -0.001961    0.032039   -0.010683    0.003928   -0.028640
    -0.004838    0.000660   -0.012989   -0.007082    0.002739   -0.018877
     0.099331    0.083866   -0.037900    0.004894    0.011475   -0.005710
     0.083866    0.269854   -0.095661   -0.010125   -0.024391    0.012290
    -0.037900   -0.095661    0.101403   -0.007859   -0.019090    0.009442
     0.004894   -0.010125   -0.007859    0.099329   -0.074749   -0.053676
     0.011475   -0.024391   -0.019090   -0.074749    0.226348    0.120764
    -0.005710    0.012290    0.009442   -0.053676    0.120764    0.144893

 Eigenvectors of Proj. Mass-Weighted Hessian Matrix:


     0.008901   -0.117437   -0.422210    0.450144   -0.055842   -0.038664
     0.007348    0.039071    0.129912    0.194736    0.722832   -0.312390
    -0.020938    0.663736   -0.215453    0.026760    0.168659    0.399861
     0.008901   -0.117437   -0.422210    0.450144   -0.055842   -0.038664
     0.026210    0.160335    0.567090    0.566544   -0.078707    0.036072
     0.589454   -0.158420   -0.001012    0.016503    0.217170    0.506424
    -0.070327    0.040776   -0.216632    0.072335    0.106085   -0.078978
     0.162292    0.096918   -0.013417    0.014269    0.211432   -0.249743
    -0.276010    0.121279   -0.051971    0.029088    0.124813    0.294000
    -0.043395    0.054132   -0.061480    0.197802   -0.163508    0.042523
     0.114798    0.069128   -0.007872    0.018613    0.228217   -0.210484
     0.201366    0.400604   -0.107702   -0.014575   -0.043896   -0.100607
     0.121463   -0.197012   -0.088960    0.121223    0.008873    0.002841
    -0.274875   -0.158880    0.037620    0.054254    0.365931    0.111626
    -0.078454    0.236874   -0.075035    0.011019    0.054995    0.130697
    -0.116302    0.128943   -0.155755    0.139683   -0.041239   -0.025251
     0.284597    0.216667    0.164374    0.166368   -0.179260   -0.191702
     0.243211   -0.090432    0.012303    0.001519    0.056820    0.131947
     0.048555   -0.122200   -0.183235    0.063104    0.131141   -0.064932
    -0.105075   -0.011341    0.209866    0.202009   -0.041546    0.130408
    -0.036605   -0.254160    0.044970    0.027112    0.155710    0.363249
     0.075487   -0.108845   -0.028083    0.188572   -0.138452    0.056569
    -0.152569   -0.039131    0.215411    0.206353   -0.024762    0.169667
     0.440770    0.025165   -0.010761   -0.016550   -0.013000   -0.031358


    -0.000000    0.000003    0.000005   -0.619947   -0.000006   -0.000008
     0.000004    0.157565    0.003367    0.000000   -0.410853    0.022800
    -0.000003   -0.003362    0.157563   -0.000000   -0.022793   -0.410857
     0.000000   -0.000004   -0.000003    0.619947   -0.000008   -0.000005
    -0.000002    0.157564    0.003363   -0.000000    0.410858   -0.022792
     0.000004   -0.003367    0.157565    0.000000    0.022801    0.410852
    -0.000005   -0.399348   -0.299895   -0.196345    0.357285    0.227672
    -0.238128   -0.172634    0.023545   -0.001573    0.096436   -0.074009
     0.331613    0.031282   -0.189836   -0.001130   -0.060325    0.150204
     0.000006    0.459376   -0.195894   -0.196345   -0.375793    0.195592
    -0.168118   -0.161784   -0.025022    0.001765    0.078578    0.050019
    -0.372024   -0.017280   -0.200674   -0.000798    0.063697    0.168047
    -0.000001   -0.060037    0.495773   -0.196346    0.018530   -0.423234
     0.406237   -0.209273   -0.010131   -0.000192    0.194922    0.003450
     0.040415   -0.002391   -0.153186    0.001927    0.017142    0.051697
     0.000002   -0.060040    0.495788    0.196345   -0.018512    0.423250
     0.406246   -0.209280   -0.010134    0.000191   -0.194931   -0.003472
     0.040417   -0.002392   -0.153192   -0.001927   -0.017149   -0.051708
     0.000002    0.459384   -0.195900    0.196345    0.375806   -0.195577
    -0.168124   -0.161790   -0.025024   -0.001765   -0.078596   -0.050022
    -0.372027   -0.017283   -0.200673    0.000798   -0.063720   -0.168034
    -0.000004   -0.399331   -0.299880    0.196345   -0.357267   -0.227657
    -0.238120   -0.172627    0.023546    0.001573   -0.096427    0.074006
     0.331602    0.031283   -0.189826    0.001130    0.060329   -0.150187


    -0.296016   -0.317388    0.000001   -0.000018   -0.000009   -0.000010
     0.000011    0.000002    0.088658   -0.017051    0.086424   -0.147195
     0.000018    0.000010   -0.017223   -0.088762   -0.147083   -0.086463
    -0.296046    0.317359    0.000007   -0.000001   -0.000003    0.000004
    -0.000012    0.000005   -0.088764    0.017220    0.086462   -0.147079
    -0.000009   -0.000000    0.017053    0.088667   -0.147192   -0.086423
     0.340477    0.332564    0.187146   -0.198060   -0.019513   -0.213202
     0.119160    0.121865   -0.147731   -0.261405   -0.301751   -0.064288
     0.085545    0.087489    0.333918    0.228351    0.402567   -0.103178
     0.340484    0.332569   -0.265210   -0.063219   -0.174629    0.123604
    -0.133680   -0.136716    0.049828    0.219999    0.203936    0.110669
     0.060373    0.061753   -0.147081    0.425452    0.227669    0.403126
     0.340480    0.332564    0.078057    0.261336    0.194172    0.089629
     0.014505    0.014842   -0.465518    0.149987   -0.200365    0.461662
    -0.145956   -0.149274   -0.077671   -0.090032   -0.122833   -0.001557
     0.340507   -0.332526   -0.077856   -0.261169    0.194450    0.089552
     0.014538   -0.014861    0.465882   -0.150449   -0.200480    0.461080
    -0.145974    0.149261    0.077604    0.089903   -0.122963   -0.001582
     0.340510   -0.332532    0.265233    0.062986   -0.174829    0.123361
    -0.133676    0.136691   -0.049595   -0.219870    0.204188    0.110600
     0.060422   -0.061775    0.147629   -0.425450    0.228012    0.402717
     0.340520   -0.332541   -0.187400    0.198191   -0.019608   -0.212923
     0.119157   -0.121846    0.147499    0.261156   -0.302094   -0.064297
     0.085559   -0.087486   -0.333814   -0.227896    0.402977   -0.102960


    -0.114001   -0.122207    0.000099   -0.000046    0.000068    0.000038
    -0.000113   -0.000065   -0.018394    0.212246   -0.017808   -0.215401
    -0.000155   -0.000133   -0.212457   -0.018830   -0.215188    0.017376
    -0.113957    0.122248    0.000056   -0.000077   -0.000046   -0.000053
     0.000138   -0.000111    0.018828   -0.212436   -0.017378   -0.215209
     0.000112   -0.000054    0.212226    0.018392   -0.215422    0.017810
     0.130960    0.132247   -0.125100    0.145342   -0.126639   -0.149071
    -0.309158   -0.308098    0.281210   -0.310376    0.277909    0.312132
    -0.222008   -0.221248    0.184882   -0.237530    0.183945    0.237412
     0.131158    0.132367   -0.063776   -0.181014   -0.065525    0.183905
     0.347323    0.345937   -0.163300   -0.440860   -0.163486    0.438366
    -0.156973   -0.156342    0.054902    0.205821    0.056653   -0.204267
     0.131250    0.132475    0.188538    0.035833    0.191940   -0.034956
    -0.037769   -0.037618   -0.053514    0.008294   -0.052963   -0.007226
     0.379522    0.378049    0.503888    0.097611    0.501929   -0.093093
     0.130988   -0.132371   -0.188469   -0.035314    0.192311   -0.035228
    -0.037674    0.037576    0.053534   -0.008451   -0.053030   -0.007137
     0.378810   -0.377789   -0.503745   -0.096218    0.502939   -0.093801
     0.131004   -0.132339    0.063153    0.181148   -0.065841    0.184007
     0.346949   -0.345888    0.161764    0.441195   -0.164241    0.438642
    -0.156774    0.156302   -0.054212   -0.206021    0.056993   -0.204357
     0.131235   -0.132519    0.125117   -0.145573   -0.126321   -0.148604
    -0.309757    0.308696   -0.281193    0.310856    0.277225    0.311094
    -0.222430    0.221672   -0.184914    0.237850    0.183411    0.236691

 Vibrational Frequencies in atomic units
    -0.0000000000   -0.0000000000   -0.0000000000   -0.0000000000    0.0000000000    0.0000000000
     0.0079267526    0.0357162615    0.0357170084    0.0469376172    0.0730119214    0.0730131216
     0.0967017322    0.0972038775    0.1047545116    0.1047546420    0.1054260320    0.1054260897
     0.3621368985    0.3639228605    0.3743314551    0.3743348025    0.3815044870    0.3815079124
 **********************************************************************
 **                                                                  **
 **                       VIBRATIONAL ANALYSIS                       **
 **                       --------------------                       **
 **                                                                  **
 **        VIBRATIONAL FREQUENCIES (CM**-1) AND NORMAL MODES         **
 **     FORCE CONSTANTS (mDYN/ANGSTROM) AND REDUCED MASSES (AMU)     **
 **                  INFRARED INTENSITIES (KM/MOL)                   **
 **                                                                  **
 **********************************************************************
 

 Mode:                 1                      2                      3
 Frequency:       457.67                 971.49                 971.50
 Force Cnst:      0.1244                 0.5871                 0.5872
 Red. Mass:       1.0078                 1.0559                 1.0559
 IR Active:          YES                    YES                    YES
 IR Intens:        0.000                  3.754                  3.754
 Raman Active:       YES                    YES                    YES
               X      Y      Z        X      Y      Z        X      Y      Z
 C         -0.000  0.000 -0.000    0.000  0.047 -0.001    0.000  0.001  0.047
 C          0.000 -0.000  0.000   -0.000  0.047 -0.001   -0.000  0.001  0.047
 H         -0.000 -0.238  0.332   -0.409 -0.177  0.032   -0.307  0.024 -0.194
 H          0.000 -0.168 -0.372    0.470 -0.166 -0.018   -0.201 -0.026 -0.205
 H         -0.000  0.406  0.040   -0.061 -0.214 -0.002    0.507 -0.010 -0.157
 H          0.000  0.406  0.040   -0.061 -0.214 -0.002    0.507 -0.010 -0.157
 H          0.000 -0.168 -0.372    0.470 -0.166 -0.018   -0.201 -0.026 -0.205
 H         -0.000 -0.238  0.332   -0.409 -0.177  0.032   -0.307  0.024 -0.194
 TransDip   0.000  0.000 -0.000    0.000 -0.062  0.001   -0.000 -0.001 -0.062

 Mode:                 4                      5                      6
 Frequency:      1113.69                1389.00                1389.01
 Force Cnst:      2.4891                 1.6608                 1.6608
 Red. Mass:       3.4061                 1.4611                 1.4610
 IR Active:          YES                    YES                    YES
 IR Intens:        0.000                  0.000                  0.000
 Raman Active:       YES                    YES                    YES
               X      Y      Z        X      Y      Z        X      Y      Z
 C         -0.330  0.000 -0.000   -0.000 -0.143 -0.008   -0.000  0.008 -0.143
 C          0.330 -0.000  0.000   -0.000  0.143  0.008   -0.000 -0.008  0.143
 H         -0.361 -0.003 -0.002    0.430  0.116 -0.073    0.274 -0.089  0.181
 H         -0.361  0.003 -0.001   -0.452  0.095  0.077    0.235  0.060  0.202
 H         -0.361 -0.000  0.004    0.022  0.235  0.021   -0.510  0.004  0.062
 H          0.361  0.000 -0.004   -0.022 -0.235 -0.021    0.510 -0.004 -0.062
 H          0.361 -0.003  0.001    0.452 -0.095 -0.077   -0.235 -0.060 -0.202
 H          0.361  0.003  0.002   -0.430 -0.116  0.073   -0.274  0.089 -0.181
 TransDip  -0.000 -0.000 -0.000    0.000 -0.000 -0.000    0.000 -0.000  0.000

 Mode:                 7                      8                      9
 Frequency:      1598.54                1602.68                1663.77
 Force Cnst:      1.8075                 1.8704                 1.6687
 Red. Mass:       1.2006                 1.2359                 1.0231
 IR Active:          YES                    YES                    YES
 IR Intens:        6.232                  0.000                  0.000
 Raman Active:       YES                    YES                    YES
               X      Y      Z        X      Y      Z        X      Y      Z
 C         -0.094  0.000  0.000   -0.102  0.000  0.000    0.000  0.026 -0.005
 C         -0.094 -0.000 -0.000    0.102  0.000 -0.000    0.000 -0.026  0.005
 H          0.372  0.130  0.093    0.368  0.135  0.097    0.189 -0.149  0.336
 H          0.372 -0.146  0.066    0.368 -0.151  0.068   -0.267  0.050 -0.148
 H          0.372  0.016 -0.159    0.368  0.016 -0.165    0.079 -0.469 -0.078
 H          0.372  0.016 -0.159   -0.368 -0.016  0.165   -0.078  0.469  0.078
 H          0.372 -0.146  0.066   -0.368  0.151 -0.068    0.267 -0.050  0.149
 H          0.372  0.130  0.093   -0.368 -0.135 -0.097   -0.189  0.149 -0.336
 TransDip   0.080  0.000 -0.000    0.000 -0.000 -0.000   -0.000  0.000  0.000

 Mode:                10                     11                     12
 Frequency:      1663.77                1669.09                1669.09
 Force Cnst:      1.6687                 1.7475                 1.7475
 Red. Mass:       1.0231                 1.0646                 1.0646
 IR Active:          YES                    YES                    YES
 IR Intens:        0.000                  9.287                  9.286
 Raman Active:       YES                    YES                    YES
               X      Y      Z        X      Y      Z        X      Y      Z
 C         -0.000 -0.005 -0.026   -0.000  0.026 -0.044   -0.000 -0.044 -0.026
 C         -0.000  0.005  0.026   -0.000  0.026 -0.044    0.000 -0.044 -0.026
 H         -0.200 -0.263  0.230   -0.020 -0.310  0.414   -0.219 -0.066 -0.106
 H         -0.064  0.222  0.429   -0.179  0.210  0.234    0.127  0.114  0.414
 H          0.263  0.151 -0.091    0.200 -0.206 -0.126    0.092  0.474 -0.002
 H         -0.263 -0.152  0.091    0.200 -0.206 -0.126    0.092  0.474 -0.002
 H          0.063 -0.222 -0.429   -0.180  0.210  0.234    0.127  0.114  0.414
 H          0.200  0.263 -0.230   -0.020 -0.310  0.414   -0.219 -0.066 -0.106
 TransDip   0.000 -0.000  0.000    0.000 -0.049  0.084    0.000  0.084  0.049

 Mode:                13                     14                     15
 Frequency:      3093.44                3101.06                3145.10
 Force Cnst:      5.8208                 5.8710                 6.4069
 Red. Mass:       1.0324                 1.0362                 1.0993
 IR Active:          YES                    YES                    YES
 IR Intens:       73.619                  0.000                  0.000
 Raman Active:       YES                    YES                    YES
               X      Y      Z        X      Y      Z        X      Y      Z
 C         -0.033 -0.000 -0.000   -0.036 -0.000 -0.000    0.000 -0.006 -0.064
 C         -0.033  0.000  0.000    0.036 -0.000 -0.000    0.000  0.006  0.064
 H          0.133 -0.313 -0.225    0.134 -0.312 -0.224   -0.131  0.294  0.193
 H          0.133  0.352 -0.159    0.134  0.351 -0.159   -0.067 -0.171  0.057
 H          0.133 -0.038  0.384    0.134 -0.038  0.383    0.197 -0.056  0.526
 H          0.133 -0.038  0.383   -0.134  0.038 -0.383   -0.197  0.056 -0.526
 H          0.133  0.351 -0.159   -0.134 -0.351  0.158    0.066  0.169 -0.057
 H          0.133 -0.314 -0.225   -0.134  0.313  0.225    0.131 -0.294 -0.193
 TransDip  -0.275  0.000 -0.000    0.000 -0.000 -0.000    0.000  0.000 -0.000

 Mode:                16                     17                     18
 Frequency:      3145.11                3175.09                3175.10
 Force Cnst:      6.4070                 6.5458                 6.5458
 Red. Mass:       1.0993                 1.1020                 1.1020
 IR Active:          YES                    YES                    YES
 IR Intens:        0.000                101.275                101.274
 Raman Active:       YES                    YES                    YES
               X      Y      Z        X      Y      Z        X      Y      Z
 C         -0.000  0.064 -0.006    0.000 -0.005 -0.065    0.000 -0.065  0.005
 C         -0.000 -0.064  0.006   -0.000 -0.005 -0.065   -0.000 -0.065  0.005
 H          0.152 -0.324 -0.248   -0.132  0.291  0.192   -0.156  0.326  0.248
 H         -0.189 -0.460  0.215   -0.069 -0.171  0.059    0.192  0.458 -0.214
 H          0.037  0.009  0.102    0.201 -0.055  0.525   -0.037 -0.008 -0.097
 H         -0.037 -0.009 -0.100    0.201 -0.055  0.526   -0.037 -0.007 -0.098
 H          0.189  0.461 -0.215   -0.069 -0.172  0.060    0.192  0.459 -0.214
 H         -0.152  0.325  0.248   -0.132  0.290  0.192   -0.155  0.325  0.248
 TransDip  -0.000 -0.000 -0.000    0.000 -0.026 -0.321   -0.000 -0.321  0.026

 STANDARD THERMODYNAMIC QUANTITIES AT   298.15 K  AND     1.00 ATM

   This Molecule has  0 Imaginary Frequencies
   Zero point vibrational energy:       50.027 kcal/mol

   Atom    1 Element C  Has Mass   12.00000
   Atom    2 Element C  Has Mass   12.00000
   Atom    3 Element H  Has Mass    1.00783
   Atom    4 Element H  Has Mass    1.00783
   Atom    5 Element H  Has Mass    1.00783
   Atom    6 Element H  Has Mass    1.00783
   Atom    7 Element H  Has Mass    1.00783
   Atom    8 Element H  Has Mass    1.00783
   Molecular Mass:    30.046980 amu
   Principal axes and moments of inertia in amu*Bohr^2:
                             1           2           3
    Eigenvalues --       22.65884    88.40007    88.40011
          X               1.00000    -0.00000     0.00000
          Y               0.00000     0.69752     0.71657
          Z               0.00000     0.71657    -0.69752
   Rotational Symmetry Number is   1
   The Molecule is an Asymmetric Top
   Translational Enthalpy:        0.889 kcal/mol
   Rotational Enthalpy:           0.889 kcal/mol
   Vibrational Enthalpy:         50.275 kcal/mol
   gas constant (RT):             0.592 kcal/mol
   Translational Entropy:        36.134  cal/mol.K
   Rotational Entropy:           19.810  cal/mol.K
   Vibrational Entropy:           1.118  cal/mol.K

   Total Enthalpy:               52.645 kcal/mol
   Total Entropy:                57.061  cal/mol.K
Archival summary:
1\1\nia-login01.scinet.local\FREQ\HF\6-31G\26\clavigne\TueApr2014:27:482021TueApr2014:27:482021\0\\#,FREQ,HF,6-31G,\\0,1\C\H,1,2.06753\H,1,2.06753,2,108.354\H,1,2.06755,2,108.353,3,-117.361,0\C,1,2.85738,2,110.567,3,121.32,0\H,5,2.06752,1,110.567,2,-60.0001,0\H,5,2.06754,1,110.567,2,180,0\H,5,2.06755,1,110.567,2,59.9998,0\\HF=-79.1967812\\@

 Total job time:  0.63s(wall), 4.72s(cpu) 
 Tue Apr 20 14:27:48 2021

        *************************************************************
        *                                                           *
        *  Thank you very much for using Q-Chem.  Have a nice day.  *
        *                                                           *
        *************************************************************


