
Running Job 1 of 1 qchem.inp
qchem qchem.inp_379293.0 ./qchem.scratch/ 0
/gpfs/fs1/scinet/niagara/software/commercial/qc53/exe/qcprog.exe_s qchem.inp_379293.0 ./qchem.scratch/
                  Welcome to Q-Chem
     A Quantum Leap Into The Future Of Chemistry


 Q-Chem 5.3, Q-Chem, Inc., Pleasanton, CA (2020)

 License issued to: SRG Alan Aspuru-Guzik, University of Toronto

 Yihan Shao,  Zhengting Gan,  E. Epifanovsky,  A. T. B. Gilbert,  M. Wormit,  
 J. Kussmann,  A. W. Lange,  A. Behn,  Jia Deng,  Xintian Feng,  D. Ghosh,  
 M. Goldey,  P. R. Horn,  L. D. Jacobson,  I. Kaliman,  T. Kus,  A. Landau,  
 Jie Liu,  E. I. Proynov,  R. M. Richard,  R. P. Steele,  E. J. Sundstrom,  
 H. L. Woodcock III,  P. M. Zimmerman,  D. Zuev,  B. Alam,  B. Albrecht,  
 A. Aldossary,  E. Alguire,  S. A. Baeppler,  D. Barton,  Z. Benda,  
 Y. A. Bernard,  E. J. Berquist,  K. B. Bravaya,  H. Burton,  K. Carter-Fenk,  
 D. Casanova,  Chun-Min Chang,  Yunqing Chen,  A. Chien,  K. D. Closser,  
 M. P. Coons,  S. Coriani,  S. Dasgupta,  A. L. Dempwolff,  M. Diedenhofen,  
 Hainam Do,  R. G. Edgar,  Po-Tung Fang,  S. Faraji,  S. Fatehi,  
 Qingguo Feng,  J. Fosso-Tande,  J. Gayvert,  Qinghui Ge,  A. Ghysels,  
 G. Gidofalvi,  J. Gomes,  J. Gonthier,  S. Gulania,  A. Gunina,  D. Hait,  
 M. W. D. Hanson-Heine,  S. Hammes-Schiffer,  P. H. P. Harbach,  
 A. W. Hauser,  M. F. Herbst,  J. E. Herr,  E. G. Hohenstein,  Z. C. Holden,  
 S. Houck,  Kerwin Hui,  B. C. Huynh,  M. Ivanov,  T.-C. Jagau,  Hyunjun Ji,  
 B. Kaduk,  K. Khistyaev,  Jaehoon Kim,  P. Klunzinger,  K. Koh,  
 D. Kosenkov,  L. Koulias,  T. Kowalczyk,  C. M. Krauter,  A. Kunitsa,  
 Ka Un Lao,  A. Laurent,  K. V. Lawler,  Joonho Lee,  D. Lefrancois,  
 S. Lehtola,  D. S. Levine,  Yi-Pei Li,  You-Sheng Lin,  Fenglai Liu,  
 Kuan-Yu Liu,  E. Livshits,  M. Loipersberger,  A. Luenser,  A. Manjanath,  
 P. Manohar,  E. Mansoor,  S. F. Manzer,  Shan-Ping Mao,  Yuezhi Mao,  
 N. Mardirossian,  A. V. Marenich,  T. Markovich,  L. A. Martinez-Martinez,  
 S. A. Maurer,  N. J. Mayhall,  S. C. McKenzie,  J.-M. Mewes,  P. Morgante,  
 A. F. Morrison,  J. W. Mullinax,  K. Nanda,  T. S. Nguyen-Beck,  
 R. Olivares-Amaya,  K. J. Oosterbaan,  J. A. Parkhill,  S. K. Paul,  
 F. Pavosevic,  Zheng Pei,  T. M. Perrine,  F. Plasser,  P. Pokhilko,  
 S. Prager,  A. Prociuk,  E. Ramos,  B. Rana,  D. R. Rehn,  F. Rob,  
 E. Rossomme,  M. Scheurer,  M. Schneider,  N. Sergueev,  S. M. Sharada,  
 S. Sharma,  W. Skomorowski,  D. W. Small,  T. Stauch,  C. J. Stein,  
 T. Stein,  Yu-Chuan Su,  S. P. Veccham,  Zhen Tao,  A. J. W. Thom,  
 A. Tkatchenko,  T. Tsuchimochi,  N. M. Tubman,  L. Vogt,  M. L. Vidal,  
 O. Vydrov,  M. A. Watson,  J. Wenzel,  M. de Wergifosse,  T. A. Wesolowski,  
 A. White,  J. Witte,  A. Yamada,  Jun Yang,  K. Yao,  S. Yeganeh,  
 S. R. Yost,  Zhi-Qiang You,  A. Zech,  Igor Ying Zhang,  Xing Zhang,  
 Yan Zhao,  Ying Zhu,  B. R. Brooks,  G. K. L. Chan,  C. J. Cramer,  
 M. S. Gordon,  W. J. Hehre,  A. Klamt,  M. W. Schmidt,  C. D. Sherrill,  
 D. G. Truhlar,  A. Aspuru-Guzik,  R. Baer,  A. T. Bell,  N. A. Besley,  
 Jeng-Da Chai,  A. E. DePrince, III,  R. A. DiStasio Jr.,  A. Dreuw,  
 B. D. Dunietz,  T. R. Furlani,  Chao-Ping Hsu,  Yousung Jung,  Jing Kong,  
 D. S. Lambrecht,  WanZhen Liang,  C. Ochsenfeld,  V. A. Rassolov,  
 L. V. Slipchenko,  J. E. Subotnik,  T. Van Voorhis,  J. M. Herbert,  
 A. I. Krylov,  P. M. W. Gill,  M. Head-Gordon

 Contributors to earlier versions of Q-Chem not listed above: 
 R. D. Adamson,  B. Austin,  J. Baker,  G. J. O. Beran,  K. Brandhorst,  
 S. T. Brown,  E. F. C. Byrd,  A. K. Chakraborty,  C.-L. Cheng,  
 Siu Hung Chien,  D. M. Chipman,  D. L. Crittenden,  H. Dachsel,  
 R. J. Doerksen,  A. D. Dutoi,  L. Fusti-Molnar,  W. A. Goddard III,  
 A. Golubeva-Zadorozhnaya,  S. R. Gwaltney,  G. Hawkins,  A. Heyden,  
 S. Hirata,  G. Kedziora,  F. J. Keil,  C. Kelley,  Jihan Kim,  R. A. King,  
 R. Z. Khaliullin,  P. P. Korambath,  W. Kurlancheek,  A. M. Lee,  M. S. Lee,  
 S. V. Levchenko,  Ching Yeh Lin,  D. Liotard,  R. C. Lochan,  I. Lotan,  
 P. E. Maslen,  N. Nair,  D. P. O'Neill,  D. Neuhauser,  E. Neuscamman,  
 C. M. Oana,  R. Olson,  B. Peters,  R. Peverati,  P. A. Pieniazek,  
 Y. M. Rhee,  J. Ritchie,  M. A. Rohrdanz,  E. Rosta,  N. J. Russ,  
 H. F. Schaefer III,  N. E. Schultz,  N. Shenvi,  A. C. Simmonett,  A. Sodt,  
 D. Stuck,  K. S. Thanthiriwatte,  V. Vanovschi,  Tao Wang,  A. Warshel,  
 C. F. Williams,  Q. Wu,  X. Xu,  W. Zhang

 Please cite Q-Chem as follows:
 Y. Shao et al., Mol. Phys. 113, 184-215 (2015)
 DOI: 10.1080/00268976.2014.952696

 Q-Chem 5.3.2 for Intel X86 EM64T Linux

 Parts of Q-Chem use Armadillo 9.800.1 (Horizon Scraper).
 http://arma.sourceforge.net/

 Q-Chem begins on Mon Mar 29 14:00:58 2021  

Host: 
0

     Scratch files written to ./qchem.scratch//
 Dec820 |scratch|qcdevops|jenkins|workspace|build_RNUM 6959   
Processing $rem in /gpfs/fs1/scinet/niagara/software/commercial/qc53/config/preferences:
Processing $rem in /home/p/pbrumer/clavigne/.qchemrc:
Requested ECP is DEF2-ECP

Checking the input file for inconsistencies... 	...done.

--------------------------------------------------------------
User input:
--------------------------------------------------------------
$molecule
0 1
6   -2.45742408644   0.95339259466   0.000001882331
6   -0.402937381349   2.6047565282   0.000671935043
6   2.054424123193   1.651416200882   -0.000681655047
6   2.457428698515   -0.953515157762   -0.000003688781
6   0.402976855017   -2.604686411612   0.000688649456
6   -2.054433195591   -1.651368424519   -0.000698515078
1   -4.371902833973   1.696368440569   0.000204078488
1   -0.716918591373   4.634396025372   0.002345870204
1   3.65497132605   2.937963421069   -0.00246096626
1   4.371826370261   -1.696321902262   0.000153917116
1   0.716849053626   -4.634390810014   0.002358457854
1   -3.655035404664   -2.937987153829   -0.002473004939
$end

$rem
method  pbe
basis def2-SVP
symmetry false
sym_ignore true
ecp def2-ecp
mem_total 35000
scf_guess read
jobtype freq
input_bohr true
hess_and_grad true
vibman_print 6
$end

$comment
this is a test run
$end
--------------------------------------------------------------
 ----------------------------------------------------------------
             Standard Nuclear Orientation (Bohr)
    I     Atom           X                Y                Z
 ----------------------------------------------------------------
    1      C      -2.4574240864     0.9533925947     0.0000018823
    2      C      -0.4029373813     2.6047565282     0.0006719350
    3      C       2.0544241232     1.6514162009    -0.0006816550
    4      C       2.4574286985    -0.9535151578    -0.0000036888
    5      C       0.4029768550    -2.6046864116     0.0006886495
    6      C      -2.0544331956    -1.6513684245    -0.0006985151
    7      H      -4.3719028340     1.6963684406     0.0002040785
    8      H      -0.7169185914     4.6343960254     0.0023458702
    9      H       3.6549713261     2.9379634211    -0.0024609663
   10      H       4.3718263703    -1.6963219023     0.0001539171
   11      H       0.7168490536    -4.6343908100     0.0023584579
   12      H      -3.6550354047    -2.9379871538    -0.0024730049
 ----------------------------------------------------------------
 Nuclear Repulsion Energy =         203.41676856 hartrees
 There are       21 alpha and       21 beta electrons
 Requested basis set is def2-SVP
 There are 54 shells and 114 basis functions

 Total QAlloc Memory Limit  35000 MB
 Mega-Array Size      2018 MB
 MEM_STATIC part      2048 MB

                       Distance Matrix (Bohrs)
             C (  1)   C (  2)   C (  3)   C (  4)   C (  5)   C (  6)
   C (  2)  2.635891
   C (  3)  4.565524  2.635808
   C (  4)  5.271819  4.565413  2.635921
   C (  5)  4.565284  5.271413  4.565270  2.635743
   C (  6)  2.635751  4.565308  5.271726  4.565512  2.635845
   H (  7)  2.053592  4.071591  6.426484  7.325411  6.426395  4.071610
   H (  8)  4.071750  2.053783  4.071673  6.426604  7.325195  6.426491
   H (  9)  6.426500  4.071567  2.053523  4.071575  6.426231  7.325249
   H ( 10)  7.325275  6.426324  4.071573  2.053456  4.071473  6.426417
   H ( 11)  6.426456  7.325243  6.426545  4.071667  2.053830  4.071663
   H ( 12)  4.071500  6.426364  7.325336  6.426535  4.071678  2.053611
             H (  7)   H (  8)   H (  9)   H ( 10)   H ( 11)
   H (  8)  4.689448
   H (  9)  8.122332  4.689491
   H ( 10)  9.378867  8.122396  4.689402
   H ( 11)  8.122433  9.379024  8.122385  4.689468
   H ( 12)  4.689473  8.122410  9.378859  8.122330  4.689476
 
 A cutoff of  1.0D-11 yielded   1443 shell pairs
 There are      6507 function pairs (      7242 Cartesian)
 Smallest overlap matrix eigenvalue = 3.16E-04
 Guess MOs from SCF MO coefficient file

 -----------------------------------------------------------------------
  General SCF calculation program by
  Eric Jon Sundstrom, Paul Horn, Yuezhi Mao, Dmitri Zuev, Alec White,
  David Stuck, Shaama M.S., Shane Yost, Joonho Lee, David Small,
  Daniel Levine, Susi Lehtola, Hugh Burton, Evgeny Epifanovsky,
  Bang C. Huynh
 -----------------------------------------------------------------------
 Exchange:  PBE      Correlation:  PBE
 Using SG-1 standard quadrature grid
 A restricted SCF calculation will be
 performed using DIIS
 SCF converges when DIIS error is below 1.0e-08
 ---------------------------------------
  Cycle       Energy         DIIS error
 ---------------------------------------
    1    -231.7725454148      4.56e-09  
    2    -231.7725454147      9.07e-09  Convergence criterion met
 ---------------------------------------
 SCF time:   CPU 1.45s  wall 1.00s 
 SCF   energy in the final basis set =     -231.7725454147
 Total energy in the final basis set =     -231.7725454147
 
 --------------------------------------------------------------
 
                    Orbital Energies (a.u.)
 --------------------------------------------------------------
 
 Alpha MOs
 -- Occupied --
 -9.8985  -9.8985  -9.8985  -9.8982  -9.8982  -9.8982  -0.7698  -0.6668
 -0.6668  -0.5363  -0.5363  -0.4694  -0.4038  -0.3975  -0.3723  -0.3723
 -0.3295  -0.2992  -0.2992  -0.2289  -0.2288
 -- Virtual --
 -0.0367  -0.0367   0.0379   0.0800   0.0800   0.1077   0.1183   0.1183
  0.1399   0.2544   0.2544   0.2655   0.2656   0.3370   0.3773   0.3890
  0.3891   0.4004   0.4267   0.4344   0.4673   0.4673   0.4982   0.5019
  0.5020   0.5629   0.5630   0.5941   0.5942   0.6301   0.6301   0.6339
  0.6840   0.6841   0.6918   0.6996   0.7306   0.7307   0.7950   0.8484
  0.9800   0.9802   1.0939   1.1832   1.1832   1.1873   1.2237   1.2237
  1.2430   1.2430   1.4710   1.5809   1.5833   1.6082   1.6723   1.6844
  1.6844   1.6896   1.6896   1.6960   1.6960   1.7628   1.7628   1.8631
  1.9138   1.9138   1.9181   1.9217   1.9217   2.0493   2.0705   2.0706
  2.0740   2.2222   2.2222   2.2394   2.2394   2.2752   2.2753   2.4851
  2.5274   2.5274   2.5665   2.6577   2.6578   2.6589   2.7876   2.7877
  2.8190   3.0506   3.0508   3.1726   3.5848
 --------------------------------------------------------------
 
          Ground-State Mulliken Net Atomic Charges

     Atom                 Charge (a.u.)
  ----------------------------------------
      1 C                     0.010846
      2 C                     0.011024
      3 C                     0.011127
      4 C                     0.010898
      5 C                     0.011015
      6 C                     0.011137
      7 H                    -0.011031
      8 H                    -0.010975
      9 H                    -0.011014
     10 H                    -0.011062
     11 H                    -0.010967
     12 H                    -0.010997
  ----------------------------------------
  Sum of atomic charges =     0.000000

 -----------------------------------------------------------------
                    Cartesian Multipole Moments
 -----------------------------------------------------------------
    Charge (ESU x 10^10)
                -0.0000
    Dipole Moment (Debye)
         X       0.0000      Y       0.0000      Z       0.0000
       Tot       0.0001
    Quadrupole Moments (Debye-Ang)
        XX     -32.0418     XY       0.0003     YY     -32.0424
        XZ      -0.0000     YZ       0.0000     ZZ     -38.9272
    Octopole Moments (Debye-Ang^2)
       XXX       0.0010    XXY      -0.0000    XYY      -0.0004
       YYY       0.0005    XXZ      -0.0057    XYZ      -0.0073
       YYZ       0.0061    XZZ       0.0002    YZZ      -0.0001
       ZZZ       0.0001
    Hexadecapole Moments (Debye-Ang^3)
      XXXX    -275.3912   XXXY      -0.0008   XXYY     -91.7964
      XYYY       0.0014   YYYY    -275.3817   XXXZ      -0.0003
      XXYZ       0.0001   XYYZ      -0.0000   YYYZ      -0.0000
      XXZZ     -61.3823   XYZZ       0.0008   YYZZ     -61.3794
      XZZZ      -0.0000   YZZZ       0.0000   ZZZZ     -42.3390
 -----------------------------------------------------------------
 Calculating analytic gradient of the SCF energy
 Gradient of SCF Energy
            1           2           3           4           5           6
    1  -0.0002016  -0.0000431   0.0004133   0.0002260   0.0000754  -0.0003989
    2   0.0000286   0.0001697   0.0001521  -0.0001493  -0.0001053  -0.0000844
    3  -0.0000062   0.0000116  -0.0000051  -0.0000079   0.0000153  -0.0000088
            7           8           9          10          11          12
    1   0.0092883   0.0014856  -0.0077666  -0.0093327  -0.0014849   0.0077391
    2  -0.0035695  -0.0097658  -0.0062785   0.0035927   0.0097498   0.0062599
    3   0.0000045   0.0000242  -0.0000276   0.0000034   0.0000243  -0.0000277
 Max gradient component =       9.766E-03
 RMS gradient           =       4.059E-03
 Calculating MO derivatives via CPSCF
    1     0    39    0.0501493  
    2     0    39    0.0043135  
    3     0    39    0.0003187  
    4    21    18    0.0000034  
    5    39     0    0.0000000  Converged
 Time for AOints: 1.6 s (CPU) 1.6 s (wall)
 ------------------------------------------------------------------------------
                     AOints        : Timing summary (seconds)
 ------------------------------------------------------------------------------
     job step          cpu (% of tot)      sys (% of tot)     wall (% of tot)
 ------------------------------------------------------------------------------
  AOints            0.1578E+01 ( 3.9)   0.1000E-05 ( 3.1)   0.1581E+01 ( 3.8)
 ------------------------------------------------------------------------------
   Grand Totals     0.4003E+02          0.3200E-04          0.4150E+02
 ------------------------------------------------------------------------------
 Polarizability Matrix (a.u.)
            1           2           3
    1 -73.9122732  -0.0008777   0.0000093
    2  -0.0008777 -73.9142700  -0.0000034
    3   0.0000093  -0.0000034 -27.7922133
 Calculating analytic Hessian of the SCF energy
 
 Direct stationary perturbation theory relativistic correction:
 
 rels  =       0.050240828708
 relv  =      -0.249731070622
 rel2e =       0.000000000000
 E_rel =      -0.199490241914
 
 Hessian of the SCF Energy
            1           2           3           4           5           6
    1   0.7431887  -0.0219336   0.0000477  -0.2659136  -0.1494599  -0.0000614
    2  -0.0219336   0.6963508   0.0002203  -0.0920934  -0.2131145  -0.0000585
    3   0.0000477   0.0002203   0.1256894  -0.0000844  -0.0000657  -0.0628597
    4  -0.2659136  -0.0920934  -0.0000844   0.6894017  -0.0094809  -0.0001771
    5  -0.1494599  -0.2131145  -0.0000657  -0.0094809   0.7499134   0.0003885
    6  -0.0000614  -0.0000585  -0.0628597  -0.0001771   0.0003885   0.1261570
    7  -0.0510743  -0.0371401   0.0000175  -0.3317012   0.1118774   0.0001794
    8   0.0034006   0.0530635  -0.0000032   0.0546586  -0.1472533  -0.0000822
    9   0.0000004  -0.0000126   0.0099281   0.0001875  -0.0000632  -0.0628243
   10  -0.0086628  -0.0194425  -0.0000028   0.0125091   0.0335407   0.0000101
   11  -0.0194385  -0.0514856  -0.0000060   0.0739287  -0.0110183   0.0000106
   12   0.0000025   0.0000061  -0.0085999   0.0000164  -0.0000073   0.0100016
   13   0.0125051   0.0739356  -0.0000169  -0.0576244  -0.0087556   0.0000020
   14   0.0335431  -0.0110203   0.0000074  -0.0087553  -0.0025170   0.0000056
   15  -0.0000099  -0.0000110   0.0100036  -0.0000020  -0.0000055  -0.0086882
   16  -0.1211249   0.0085925   0.0000231   0.0412444  -0.0169726  -0.0000097
   17   0.0656110  -0.3572241  -0.0001135  -0.0574286  -0.0394658  -0.0000122
   18   0.0000066  -0.0000924  -0.0625150   0.0000017  -0.0000163   0.0100017
   19  -0.3142732   0.1024427   0.0000201  -0.0164108   0.0116338   0.0000033
   20   0.1025318  -0.0905747  -0.0000255  -0.0191994   0.0098027   0.0000009
   21   0.0000155  -0.0000499  -0.0323219   0.0000107   0.0000129   0.0036703
   22   0.0070100  -0.0243615  -0.0000119  -0.0573895   0.0456529   0.0000465
   23   0.0064676  -0.0135912  -0.0000099   0.0456451  -0.3464686  -0.0002407
   24  -0.0000027  -0.0000094   0.0036930   0.0000617  -0.0002522  -0.0323677
   25  -0.0038816   0.0034765   0.0000111  -0.0161447  -0.0198740   0.0000135
   26   0.0024190   0.0002905   0.0000025   0.0109018   0.0096019  -0.0000060
   27   0.0000073  -0.0000031   0.0070825  -0.0000072   0.0000114   0.0036861
   28   0.0006052  -0.0006894   0.0000004   0.0018039   0.0008731  -0.0000006
   29  -0.0006916  -0.0008891   0.0000009  -0.0001984  -0.0053912   0.0000031
   30   0.0000053   0.0000131  -0.0009283  -0.0000096   0.0000045   0.0070715
   31  -0.0049172   0.0012927  -0.0000061  -0.0011103  -0.0003117  -0.0000004
   32   0.0023587   0.0013255   0.0000089  -0.0003060   0.0008306  -0.0000014
   33  -0.0000078   0.0000031   0.0070884  -0.0000066  -0.0000060  -0.0009295
   34   0.0065385   0.0059204   0.0000022   0.0013355   0.0012768  -0.0000056
   35  -0.0248082  -0.0131306  -0.0000163   0.0023277  -0.0049200  -0.0000076
   36  -0.0000034  -0.0000056   0.0037399   0.0000088  -0.0000011   0.0070812
            7           8           9          10          11          12
    1  -0.0510743   0.0034006   0.0000004  -0.0086628  -0.0194385   0.0000025
    2  -0.0371401   0.0530635  -0.0000126  -0.0194425  -0.0514856   0.0000061
    3   0.0000175  -0.0000032   0.0099281  -0.0000028  -0.0000060  -0.0085999
    4  -0.3317012   0.0546586   0.0001875   0.0125091   0.0739287   0.0000164
    5   0.1118774  -0.1472533  -0.0000632   0.0335407  -0.0110183  -0.0000073
    6   0.0001794  -0.0000822  -0.0628243   0.0000101   0.0000106   0.0100016
    7   0.7269868   0.0325759  -0.0004009  -0.1211377   0.0085558  -0.0000219
    8   0.0325759   0.7106821  -0.0001903   0.0655765  -0.3570066   0.0001104
    9  -0.0004009  -0.0001903   0.1260361  -0.0000062   0.0000899  -0.0625340
   10  -0.1211377   0.0655765  -0.0000062   0.7434749  -0.0218455  -0.0000566
   11   0.0085558  -0.3570066   0.0000899  -0.0218455   0.6961764  -0.0002169
   12  -0.0000219   0.0001104  -0.0625340  -0.0000566  -0.0002169   0.1256736
   13   0.0412454  -0.0574302  -0.0000015  -0.2660441  -0.0921885   0.0000873
   14  -0.0169746  -0.0394682   0.0000168  -0.1495568  -0.2131675   0.0000672
   15   0.0000095   0.0000117   0.0100020   0.0000634   0.0000601  -0.0628450
   16  -0.0237186   0.0287307  -0.0000030  -0.0510760  -0.0371379  -0.0000179
   17   0.0287308  -0.0359268  -0.0000062   0.0034044   0.0530632   0.0000033
   18   0.0000029   0.0000062  -0.0087534   0.0000001   0.0000127   0.0099282
   19  -0.0017611  -0.0041593  -0.0000012   0.0006052  -0.0006893  -0.0000005
   20  -0.0030990  -0.0017791  -0.0000022  -0.0006914  -0.0008891  -0.0000009
   21  -0.0000102   0.0000031   0.0070764  -0.0000054  -0.0000131  -0.0009283
   22   0.0000150   0.0285713   0.0000135  -0.0049170   0.0012922   0.0000061
   23  -0.0021955  -0.0065454  -0.0000040   0.0023580   0.0013258  -0.0000088
   24  -0.0000136  -0.0000037   0.0037692   0.0000077  -0.0000032   0.0070897
   25  -0.2349530  -0.1481216   0.0002088   0.0065399   0.0059217  -0.0000021
   26  -0.1481414  -0.1694244   0.0001611  -0.0248072  -0.0131277   0.0000166
   27   0.0002298   0.0001640  -0.0324747   0.0000034   0.0000057   0.0037389
   28  -0.0006985  -0.0020474   0.0000007  -0.3144198   0.1024875  -0.0000139
   29   0.0286057  -0.0057275   0.0000004   0.1025783  -0.0905677   0.0000232
   30   0.0000002  -0.0000186   0.0036269  -0.0000090   0.0000475  -0.0323009
   31  -0.0033044  -0.0027546   0.0000010   0.0070096  -0.0243628   0.0000118
   32  -0.0038059  -0.0002589   0.0000090   0.0064664  -0.0135935   0.0000096
   33   0.0000073  -0.0000058   0.0070794   0.0000026   0.0000093   0.0036955
   34   0.0001016   0.0009996   0.0000008  -0.0038814   0.0034767  -0.0000112
   35   0.0010109  -0.0003555   0.0000012   0.0024190   0.0002905  -0.0000025
   36   0.0000000   0.0000084  -0.0009317  -0.0000073   0.0000034   0.0070806
           13          14          15          16          17          18
    1   0.0125051   0.0335431  -0.0000099  -0.1211249   0.0656110   0.0000066
    2   0.0739356  -0.0110203  -0.0000110   0.0085925  -0.3572241  -0.0000924
    3  -0.0000169   0.0000074   0.0100036   0.0000231  -0.0001135  -0.0625150
    4  -0.0576244  -0.0087553  -0.0000020   0.0412444  -0.0574286   0.0000017
    5  -0.0087556  -0.0025170  -0.0000055  -0.0169726  -0.0394658  -0.0000163
    6   0.0000020   0.0000056  -0.0086882  -0.0000097  -0.0000122   0.0100017
    7   0.0412454  -0.0169746   0.0000095  -0.0237186   0.0287308   0.0000029
    8  -0.0574302  -0.0394682   0.0000117   0.0287307  -0.0359268   0.0000062
    9  -0.0000015   0.0000168   0.0100020  -0.0000030  -0.0000062  -0.0087534
   10  -0.2660441  -0.1495568   0.0000634  -0.0510760   0.0034044   0.0000001
   11  -0.0921885  -0.2131675   0.0000601  -0.0371379   0.0530632   0.0000127
   12   0.0000873   0.0000672  -0.0628450  -0.0000179   0.0000033   0.0099282
   13   0.6894918  -0.0093414   0.0001780  -0.3316599   0.0546402  -0.0001911
   14  -0.0093414   0.7499077  -0.0003903   0.1118578  -0.1472418   0.0000645
   15   0.0001780  -0.0003903   0.1261534  -0.0001829   0.0000836  -0.0628263
   16  -0.3316599   0.1118578  -0.0001829   0.7268778   0.0324998   0.0004027
   17   0.0546402  -0.1472418   0.0000836   0.0324998   0.7108597   0.0001908
   18  -0.0001911   0.0000645  -0.0628263   0.0004027   0.0001908   0.1260320
   19   0.0018043   0.0008736   0.0000009  -0.0007003  -0.0020467  -0.0000008
   20  -0.0001986  -0.0053905  -0.0000032   0.0286047  -0.0057269  -0.0000006
   21   0.0000096  -0.0000045   0.0070731  -0.0000002   0.0000189   0.0036272
   22  -0.0011103  -0.0003116   0.0000004  -0.0033046  -0.0027545  -0.0000010
   23  -0.0003059   0.0008307   0.0000013  -0.0038059  -0.0002592  -0.0000089
   24   0.0000067   0.0000059  -0.0009295  -0.0000072   0.0000060   0.0070778
   25   0.0013351   0.0012770   0.0000055   0.0001014   0.0009997  -0.0000007
   26   0.0023278  -0.0049209   0.0000074   0.0010110  -0.0003553  -0.0000012
   27  -0.0000088   0.0000010   0.0070800   0.0000002  -0.0000084  -0.0009318
   28  -0.0164081   0.0116348  -0.0000033  -0.0017605  -0.0041587   0.0000015
   29  -0.0192018   0.0098037  -0.0000007  -0.0030989  -0.0017789   0.0000021
   30  -0.0000108  -0.0000132   0.0036709   0.0000103  -0.0000031   0.0070786
   31  -0.0573906   0.0456261  -0.0000465   0.0000144   0.0285722  -0.0000133
   32   0.0456183  -0.3464168   0.0002405  -0.0021947  -0.0065481   0.0000037
   33  -0.0000613   0.0002512  -0.0323777   0.0000134   0.0000041   0.0037688
   34  -0.0161443  -0.0198727  -0.0000132  -0.2348933  -0.1480696  -0.0002086
   35   0.0109001   0.0096008   0.0000061  -0.1480865  -0.1693961  -0.0001608
   36   0.0000068  -0.0000116   0.0036838  -0.0002287  -0.0001634  -0.0324877
           19          20          21          22          23          24
    1  -0.3142732   0.1025318   0.0000155   0.0070100   0.0064676  -0.0000027
    2   0.1024427  -0.0905747  -0.0000499  -0.0243615  -0.0135912  -0.0000094
    3   0.0000201  -0.0000255  -0.0323219  -0.0000119  -0.0000099   0.0036930
    4  -0.0164108  -0.0191994   0.0000107  -0.0573895   0.0456451   0.0000617
    5   0.0116338   0.0098027   0.0000129   0.0456529  -0.3464686  -0.0002522
    6   0.0000033   0.0000009   0.0036703   0.0000465  -0.0002407  -0.0323677
    7  -0.0017611  -0.0030990  -0.0000102   0.0000150  -0.0021955  -0.0000136
    8  -0.0041593  -0.0017791   0.0000031   0.0285713  -0.0065454  -0.0000037
    9  -0.0000012  -0.0000022   0.0070764   0.0000135  -0.0000040   0.0037692
   10   0.0006052  -0.0006914  -0.0000054  -0.0049170   0.0023580   0.0000077
   11  -0.0006893  -0.0008891  -0.0000131   0.0012922   0.0013258  -0.0000032
   12  -0.0000005  -0.0000009  -0.0009283   0.0000061  -0.0000088   0.0070897
   13   0.0018043  -0.0001986   0.0000096  -0.0011103  -0.0003059   0.0000067
   14   0.0008736  -0.0053905  -0.0000045  -0.0003116   0.0008307   0.0000059
   15   0.0000009  -0.0000032   0.0070731   0.0000004   0.0000013  -0.0009295
   16  -0.0007003   0.0286047  -0.0000002  -0.0033046  -0.0038059  -0.0000072
   17  -0.0020467  -0.0057269   0.0000189  -0.0027545  -0.0002592   0.0000060
   18  -0.0000008  -0.0000006   0.0036272  -0.0000010  -0.0000089   0.0070778
   19   0.3300856  -0.1086624  -0.0000237   0.0010232   0.0000083   0.0000004
   20  -0.1086624   0.0925188   0.0000230   0.0004603   0.0008985   0.0000017
   21  -0.0000237   0.0000230   0.0207518  -0.0000009   0.0000049  -0.0041168
   22   0.0010232   0.0004603  -0.0000009   0.0574677  -0.0484446  -0.0000471
   23   0.0000083   0.0008985   0.0000049  -0.0484446   0.3642946   0.0002601
   24   0.0000004   0.0000017  -0.0041168  -0.0000471   0.0002601   0.0205758
   25  -0.0008941  -0.0009423  -0.0000017   0.0010541   0.0000491  -0.0000056
   26   0.0005566   0.0003213   0.0000017  -0.0003246   0.0007716  -0.0000020
   27   0.0000011   0.0000016   0.0002528  -0.0000029   0.0000050  -0.0041019
   28  -0.0000556   0.0000681  -0.0000002  -0.0001492  -0.0001266  -0.0000003
   29   0.0000680   0.0000941  -0.0000007   0.0013691  -0.0004217  -0.0000022
   30   0.0000002   0.0000008  -0.0012004  -0.0000024  -0.0000001   0.0002548
   31  -0.0001494   0.0013690   0.0000024   0.0001161   0.0000309   0.0000006
   32  -0.0001265  -0.0004218   0.0000001   0.0000310  -0.0000771  -0.0000012
   33   0.0000004   0.0000022   0.0002547  -0.0000006   0.0000012  -0.0011990
   34   0.0007262  -0.0002407   0.0000041   0.0001843   0.0003193  -0.0000004
   35   0.0001012   0.0011467   0.0000036  -0.0011798  -0.0007580   0.0000002
   36  -0.0000002   0.0000022  -0.0041390   0.0000003  -0.0000002   0.0002548
           25          26          27          28          29          30
    1  -0.0038816   0.0024190   0.0000073   0.0006052  -0.0006916   0.0000053
    2   0.0034765   0.0002905  -0.0000031  -0.0006894  -0.0008891   0.0000131
    3   0.0000111   0.0000025   0.0070825   0.0000004   0.0000009  -0.0009283
    4  -0.0161447   0.0109018  -0.0000072   0.0018039  -0.0001984  -0.0000096
    5  -0.0198740   0.0096019   0.0000114   0.0008731  -0.0053912   0.0000045
    6   0.0000135  -0.0000060   0.0036861  -0.0000006   0.0000031   0.0070715
    7  -0.2349530  -0.1481414   0.0002298  -0.0006985   0.0286057   0.0000002
    8  -0.1481216  -0.1694244   0.0001640  -0.0020474  -0.0057275  -0.0000186
    9   0.0002088   0.0001611  -0.0324747   0.0000007   0.0000004   0.0036269
   10   0.0065399  -0.0248072   0.0000034  -0.3144198   0.1025783  -0.0000090
   11   0.0059217  -0.0131277   0.0000057   0.1024875  -0.0905677   0.0000475
   12  -0.0000021   0.0000166   0.0037389  -0.0000139   0.0000232  -0.0323009
   13   0.0013351   0.0023278  -0.0000088  -0.0164081  -0.0192018  -0.0000108
   14   0.0012770  -0.0049209   0.0000010   0.0116348   0.0098037  -0.0000132
   15   0.0000055   0.0000074   0.0070800  -0.0000033  -0.0000007   0.0036709
   16   0.0001014   0.0010110   0.0000002  -0.0017605  -0.0030989   0.0000103
   17   0.0009997  -0.0003553  -0.0000084  -0.0041587  -0.0017789  -0.0000031
   18  -0.0000007  -0.0000012  -0.0009318   0.0000015   0.0000021   0.0070786
   19  -0.0008941   0.0005566   0.0000011  -0.0000556   0.0000680   0.0000002
   20  -0.0009423   0.0003213   0.0000016   0.0000681   0.0000941   0.0000008
   21  -0.0000017   0.0000017   0.0002528  -0.0000002  -0.0000007  -0.0012004
   22   0.0010541  -0.0003246  -0.0000029  -0.0001492   0.0013691  -0.0000024
   23   0.0000491   0.0007716   0.0000050  -0.0001266  -0.0004217  -0.0000001
   24  -0.0000056  -0.0000020  -0.0041019  -0.0000003  -0.0000022   0.0002548
   25   0.2459349   0.1572346  -0.0002239   0.0007259  -0.0002412  -0.0000041
   26   0.1572346   0.1764128  -0.0001757   0.0001012   0.0011469  -0.0000037
   27  -0.0002239  -0.0001757   0.0207525   0.0000001  -0.0000022  -0.0041381
   28   0.0007259   0.0001012   0.0000001   0.3302273  -0.1087074   0.0000173
   29  -0.0002412   0.0011469  -0.0000022  -0.1087074   0.0925114  -0.0000206
   30  -0.0000041  -0.0000037  -0.0041381   0.0000173  -0.0000206   0.0207306
   31   0.0001845  -0.0011799  -0.0000003   0.0010234   0.0004604   0.0000009
   32   0.0003194  -0.0007581   0.0000002   0.0000084   0.0008987  -0.0000049
   33   0.0000004  -0.0000002   0.0002548  -0.0000005  -0.0000016  -0.0041186
   34  -0.0000024  -0.0000988   0.0000013  -0.0008939  -0.0009423   0.0000017
   35  -0.0000989   0.0000413   0.0000006   0.0005565   0.0003212  -0.0000017
   36  -0.0000013  -0.0000006  -0.0012010  -0.0000011  -0.0000017   0.0002529
           31          32          33          34          35          36
    1  -0.0049172   0.0023587  -0.0000078   0.0065385  -0.0248082  -0.0000034
    2   0.0012927   0.0013255   0.0000031   0.0059204  -0.0131306  -0.0000056
    3  -0.0000061   0.0000089   0.0070884   0.0000022  -0.0000163   0.0037399
    4  -0.0011103  -0.0003060  -0.0000066   0.0013355   0.0023277   0.0000088
    5  -0.0003117   0.0008306  -0.0000060   0.0012768  -0.0049200  -0.0000011
    6  -0.0000004  -0.0000014  -0.0009295  -0.0000056  -0.0000076   0.0070812
    7  -0.0033044  -0.0038059   0.0000073   0.0001016   0.0010109   0.0000000
    8  -0.0027546  -0.0002589  -0.0000058   0.0009996  -0.0003555   0.0000084
    9   0.0000010   0.0000090   0.0070794   0.0000008   0.0000012  -0.0009317
   10   0.0070096   0.0064664   0.0000026  -0.0038814   0.0024190  -0.0000073
   11  -0.0243628  -0.0135935   0.0000093   0.0034767   0.0002905   0.0000034
   12   0.0000118   0.0000096   0.0036955  -0.0000112  -0.0000025   0.0070806
   13  -0.0573906   0.0456183  -0.0000613  -0.0161443   0.0109001   0.0000068
   14   0.0456261  -0.3464168   0.0002512  -0.0198727   0.0096008  -0.0000116
   15  -0.0000465   0.0002405  -0.0323777  -0.0000132   0.0000061   0.0036838
   16   0.0000144  -0.0021947   0.0000134  -0.2348933  -0.1480865  -0.0002287
   17   0.0285722  -0.0065481   0.0000041  -0.1480696  -0.1693961  -0.0001634
   18  -0.0000133   0.0000037   0.0037688  -0.0002086  -0.0001608  -0.0324877
   19  -0.0001494  -0.0001265   0.0000004   0.0007262   0.0001012  -0.0000002
   20   0.0013690  -0.0004218   0.0000022  -0.0002407   0.0011467   0.0000022
   21   0.0000024   0.0000001   0.0002547   0.0000041   0.0000036  -0.0041390
   22   0.0001161   0.0000310  -0.0000006   0.0001843  -0.0011798   0.0000003
   23   0.0000309  -0.0000771   0.0000012   0.0003193  -0.0007580  -0.0000002
   24   0.0000006  -0.0000012  -0.0011990  -0.0000004   0.0000002   0.0002548
   25   0.0001845   0.0003194   0.0000004  -0.0000024  -0.0000989  -0.0000013
   26  -0.0011799  -0.0007581  -0.0000002  -0.0000988   0.0000413  -0.0000006
   27  -0.0000003   0.0000002   0.0002548   0.0000013   0.0000006  -0.0012010
   28   0.0010234   0.0000084  -0.0000005  -0.0008939   0.0005565  -0.0000011
   29   0.0004604   0.0008987  -0.0000016  -0.0009423   0.0003212  -0.0000017
   30   0.0000009  -0.0000049  -0.0041186   0.0000017  -0.0000017   0.0002529
   31   0.0574700  -0.0484179   0.0000471   0.0010539  -0.0003243   0.0000028
   32  -0.0484179   0.3642477  -0.0002595   0.0000489   0.0007718  -0.0000050
   33   0.0000471  -0.0002595   0.0205839   0.0000056   0.0000020  -0.0041006
   34   0.0010539   0.0000489   0.0000056   0.2458752   0.1571825   0.0002234
   35  -0.0003243   0.0007718   0.0000020   0.1571825   0.1763879   0.0001752
   36   0.0000028  -0.0000050  -0.0041006   0.0002234   0.0001752   0.0207667

 Mass-Weighted Hessian Matrix:


     0.061932   -0.001828    0.000004   -0.022159   -0.012455   -0.000005
    -0.001828    0.058029    0.000018   -0.007674   -0.017760   -0.000005
     0.000004    0.000018    0.010474   -0.000007   -0.000005   -0.005238
    -0.022159   -0.007674   -0.000007    0.057450   -0.000790   -0.000015
    -0.012455   -0.017760   -0.000005   -0.000790    0.062493    0.000032
    -0.000005   -0.000005   -0.005238   -0.000015    0.000032    0.010513
    -0.004256   -0.003095    0.000001   -0.027642    0.009323    0.000015
     0.000283    0.004422   -0.000000    0.004555   -0.012271   -0.000007
     0.000000   -0.000001    0.000827    0.000016   -0.000005   -0.005235
    -0.000722   -0.001620   -0.000000    0.001042    0.002795    0.000001
    -0.001620   -0.004290   -0.000000    0.006161   -0.000918    0.000001
     0.000000    0.000001   -0.000717    0.000001   -0.000001    0.000833
     0.001042    0.006161   -0.000001   -0.004802   -0.000730    0.000000
     0.002795   -0.000918    0.000001   -0.000730   -0.000210    0.000000
    -0.000001   -0.000001    0.000834   -0.000000   -0.000000   -0.000724
    -0.010094    0.000716    0.000002    0.003437   -0.001414   -0.000001
     0.005468   -0.029769   -0.000009   -0.004786   -0.003289   -0.000001
     0.000001   -0.000008   -0.005210    0.000000   -0.000001    0.000833
    -0.090370    0.029458    0.000006   -0.004719    0.003345    0.000001
     0.029483   -0.026045   -0.000007   -0.005521    0.002819    0.000000
     0.000004   -0.000014   -0.009294    0.000003    0.000004    0.001055
     0.002016   -0.007005   -0.000003   -0.016502    0.013128    0.000013
     0.001860   -0.003908   -0.000003    0.013125   -0.099628   -0.000069
    -0.000001   -0.000003    0.001062    0.000018   -0.000073   -0.009307
    -0.001116    0.001000    0.000003   -0.004642   -0.005715    0.000004
     0.000696    0.000084    0.000001    0.003135    0.002761   -0.000002
     0.000002   -0.000001    0.002037   -0.000002    0.000003    0.001060
     0.000174   -0.000198    0.000000    0.000519    0.000251   -0.000000
    -0.000199   -0.000256    0.000000   -0.000057   -0.001550    0.000001
     0.000002    0.000004   -0.000267   -0.000003    0.000001    0.002033
    -0.001414    0.000372   -0.000002   -0.000319   -0.000090   -0.000000
     0.000678    0.000381    0.000003   -0.000088    0.000239   -0.000000
    -0.000002    0.000001    0.002038   -0.000002   -0.000002   -0.000267
     0.001880    0.001702    0.000001    0.000384    0.000367   -0.000002
    -0.007134   -0.003776   -0.000005    0.000669   -0.001415   -0.000002
    -0.000001   -0.000002    0.001075    0.000003   -0.000000    0.002036


    -0.004256    0.000283    0.000000   -0.000722   -0.001620    0.000000
    -0.003095    0.004422   -0.000001   -0.001620   -0.004290    0.000001
     0.000001   -0.000000    0.000827   -0.000000   -0.000000   -0.000717
    -0.027642    0.004555    0.000016    0.001042    0.006161    0.000001
     0.009323   -0.012271   -0.000005    0.002795   -0.000918   -0.000001
     0.000015   -0.000007   -0.005235    0.000001    0.000001    0.000833
     0.060582    0.002715   -0.000033   -0.010095    0.000713   -0.000002
     0.002715    0.059224   -0.000016    0.005465   -0.029751    0.000009
    -0.000033   -0.000016    0.010503   -0.000001    0.000007   -0.005211
    -0.010095    0.005465   -0.000001    0.061956   -0.001820   -0.000005
     0.000713   -0.029751    0.000007   -0.001820    0.058015   -0.000018
    -0.000002    0.000009   -0.005211   -0.000005   -0.000018    0.010473
     0.003437   -0.004786   -0.000000   -0.022170   -0.007682    0.000007
    -0.001415   -0.003289    0.000001   -0.012463   -0.017764    0.000006
     0.000001    0.000001    0.000833    0.000005    0.000005   -0.005237
    -0.001977    0.002394   -0.000000   -0.004256   -0.003095   -0.000001
     0.002394   -0.002994   -0.000001    0.000284    0.004422    0.000000
     0.000000    0.000001   -0.000729    0.000000    0.000001    0.000827
    -0.000506   -0.001196   -0.000000    0.000174   -0.000198   -0.000000
    -0.000891   -0.000512   -0.000001   -0.000199   -0.000256   -0.000000
    -0.000003    0.000001    0.002035   -0.000002   -0.000004   -0.000267
     0.000004    0.008216    0.000004   -0.001414    0.000372    0.000002
    -0.000631   -0.001882   -0.000001    0.000678    0.000381   -0.000003
    -0.000004   -0.000001    0.001084    0.000002   -0.000001    0.002039
    -0.067561   -0.042593    0.000060    0.001881    0.001703   -0.000001
    -0.042598   -0.048718    0.000046   -0.007133   -0.003775    0.000005
     0.000066    0.000047   -0.009338    0.000001    0.000002    0.001075
    -0.000201   -0.000589    0.000000   -0.090412    0.029470   -0.000004
     0.008226   -0.001647    0.000000    0.029497   -0.026043    0.000007
     0.000000   -0.000005    0.001043   -0.000003    0.000014   -0.009288
    -0.000950   -0.000792    0.000000    0.002016   -0.007006    0.000003
    -0.001094   -0.000074    0.000003    0.001859   -0.003909    0.000003
     0.000002   -0.000002    0.002036    0.000001    0.000003    0.001063
     0.000029    0.000287    0.000000   -0.001116    0.001000   -0.000003
     0.000291   -0.000102    0.000000    0.000696    0.000084   -0.000001
     0.000000    0.000002   -0.000268   -0.000002    0.000001    0.002036


     0.001042    0.002795   -0.000001   -0.010094    0.005468    0.000001
     0.006161   -0.000918   -0.000001    0.000716   -0.029769   -0.000008
    -0.000001    0.000001    0.000834    0.000002   -0.000009   -0.005210
    -0.004802   -0.000730   -0.000000    0.003437   -0.004786    0.000000
    -0.000730   -0.000210   -0.000000   -0.001414   -0.003289   -0.000001
     0.000000    0.000000   -0.000724   -0.000001   -0.000001    0.000833
     0.003437   -0.001415    0.000001   -0.001977    0.002394    0.000000
    -0.004786   -0.003289    0.000001    0.002394   -0.002994    0.000001
    -0.000000    0.000001    0.000833   -0.000000   -0.000001   -0.000729
    -0.022170   -0.012463    0.000005   -0.004256    0.000284    0.000000
    -0.007682   -0.017764    0.000005   -0.003095    0.004422    0.000001
     0.000007    0.000006   -0.005237   -0.000001    0.000000    0.000827
     0.057458   -0.000778    0.000015   -0.027638    0.004553   -0.000016
    -0.000778    0.062492   -0.000033    0.009321   -0.012270    0.000005
     0.000015   -0.000033    0.010513   -0.000015    0.000007   -0.005236
    -0.027638    0.009321   -0.000015    0.060573    0.002708    0.000034
     0.004553   -0.012270    0.000007    0.002708    0.059238    0.000016
    -0.000016    0.000005   -0.005236    0.000034    0.000016    0.010503
     0.000519    0.000251    0.000000   -0.000201   -0.000589   -0.000000
    -0.000057   -0.001550   -0.000001    0.008225   -0.001647   -0.000000
     0.000003   -0.000001    0.002034   -0.000000    0.000005    0.001043
    -0.000319   -0.000090    0.000000   -0.000950   -0.000792   -0.000000
    -0.000088    0.000239    0.000000   -0.001094   -0.000075   -0.000003
     0.000002    0.000002   -0.000267   -0.000002    0.000002    0.002035
     0.000384    0.000367    0.000002    0.000029    0.000287   -0.000000
     0.000669   -0.001415    0.000002    0.000291   -0.000102   -0.000000
    -0.000003    0.000000    0.002036    0.000000   -0.000002   -0.000268
    -0.004718    0.003346   -0.000001   -0.000506   -0.001196    0.000000
    -0.005521    0.002819   -0.000000   -0.000891   -0.000512    0.000001
    -0.000003   -0.000004    0.001056    0.000003   -0.000001    0.002035
    -0.016503    0.013120   -0.000013    0.000004    0.008216   -0.000004
     0.013118   -0.099613    0.000069   -0.000631   -0.001883    0.000001
    -0.000018    0.000072   -0.009310    0.000004    0.000001    0.001084
    -0.004642   -0.005714   -0.000004   -0.067544   -0.042578   -0.000060
     0.003134    0.002761    0.000002   -0.042583   -0.048710   -0.000046
     0.000002   -0.000003    0.001059   -0.000066   -0.000047   -0.009342


    -0.090370    0.029483    0.000004    0.002016    0.001860   -0.000001
     0.029458   -0.026045   -0.000014   -0.007005   -0.003908   -0.000003
     0.000006   -0.000007   -0.009294   -0.000003   -0.000003    0.001062
    -0.004719   -0.005521    0.000003   -0.016502    0.013125    0.000018
     0.003345    0.002819    0.000004    0.013128   -0.099628   -0.000073
     0.000001    0.000000    0.001055    0.000013   -0.000069   -0.009307
    -0.000506   -0.000891   -0.000003    0.000004   -0.000631   -0.000004
    -0.001196   -0.000512    0.000001    0.008216   -0.001882   -0.000001
    -0.000000   -0.000001    0.002035    0.000004   -0.000001    0.001084
     0.000174   -0.000199   -0.000002   -0.001414    0.000678    0.000002
    -0.000198   -0.000256   -0.000004    0.000372    0.000381   -0.000001
    -0.000000   -0.000000   -0.000267    0.000002   -0.000003    0.002039
     0.000519   -0.000057    0.000003   -0.000319   -0.000088    0.000002
     0.000251   -0.001550   -0.000001   -0.000090    0.000239    0.000002
     0.000000   -0.000001    0.002034    0.000000    0.000000   -0.000267
    -0.000201    0.008225   -0.000000   -0.000950   -0.001094   -0.000002
    -0.000589   -0.001647    0.000005   -0.000792   -0.000075    0.000002
    -0.000000   -0.000000    0.001043   -0.000000   -0.000003    0.002035
     0.327521   -0.107818   -0.000024    0.001015    0.000008    0.000000
    -0.107818    0.091800    0.000023    0.000457    0.000892    0.000002
    -0.000024    0.000023    0.020591   -0.000001    0.000005   -0.004085
     0.001015    0.000457   -0.000001    0.057021   -0.048068   -0.000047
     0.000008    0.000892    0.000005   -0.048068    0.361464    0.000258
     0.000000    0.000002   -0.004085   -0.000047    0.000258    0.020416
    -0.000887   -0.000935   -0.000002    0.001046    0.000049   -0.000006
     0.000552    0.000319    0.000002   -0.000322    0.000766   -0.000002
     0.000001    0.000002    0.000251   -0.000003    0.000005   -0.004070
    -0.000055    0.000068   -0.000000   -0.000148   -0.000126   -0.000000
     0.000067    0.000093   -0.000001    0.001358   -0.000418   -0.000002
     0.000000    0.000001   -0.001191   -0.000002   -0.000000    0.000253
    -0.000148    0.001358    0.000002    0.000115    0.000031    0.000001
    -0.000126   -0.000419    0.000000    0.000031   -0.000077   -0.000001
     0.000000    0.000002    0.000253   -0.000001    0.000001   -0.001190
     0.000721   -0.000239    0.000004    0.000183    0.000317   -0.000000
     0.000100    0.001138    0.000004   -0.001171   -0.000752    0.000000
    -0.000000    0.000002   -0.004107    0.000000   -0.000000    0.000253


    -0.001116    0.000696    0.000002    0.000174   -0.000199    0.000002
     0.001000    0.000084   -0.000001   -0.000198   -0.000256    0.000004
     0.000003    0.000001    0.002037    0.000000    0.000000   -0.000267
    -0.004642    0.003135   -0.000002    0.000519   -0.000057   -0.000003
    -0.005715    0.002761    0.000003    0.000251   -0.001550    0.000001
     0.000004   -0.000002    0.001060   -0.000000    0.000001    0.002033
    -0.067561   -0.042598    0.000066   -0.000201    0.008226    0.000000
    -0.042593   -0.048718    0.000047   -0.000589   -0.001647   -0.000005
     0.000060    0.000046   -0.009338    0.000000    0.000000    0.001043
     0.001881   -0.007133    0.000001   -0.090412    0.029497   -0.000003
     0.001703   -0.003775    0.000002    0.029470   -0.026043    0.000014
    -0.000001    0.000005    0.001075   -0.000004    0.000007   -0.009288
     0.000384    0.000669   -0.000003   -0.004718   -0.005521   -0.000003
     0.000367   -0.001415    0.000000    0.003346    0.002819   -0.000004
     0.000002    0.000002    0.002036   -0.000001   -0.000000    0.001056
     0.000029    0.000291    0.000000   -0.000506   -0.000891    0.000003
     0.000287   -0.000102   -0.000002   -0.001196   -0.000512   -0.000001
    -0.000000   -0.000000   -0.000268    0.000000    0.000001    0.002035
    -0.000887    0.000552    0.000001   -0.000055    0.000067    0.000000
    -0.000935    0.000319    0.000002    0.000068    0.000093    0.000001
    -0.000002    0.000002    0.000251   -0.000000   -0.000001   -0.001191
     0.001046   -0.000322   -0.000003   -0.000148    0.001358   -0.000002
     0.000049    0.000766    0.000005   -0.000126   -0.000418   -0.000000
    -0.000006   -0.000002   -0.004070   -0.000000   -0.000002    0.000253
     0.244024    0.156013   -0.000222    0.000720   -0.000239   -0.000004
     0.156013    0.175042   -0.000174    0.000100    0.001138   -0.000004
    -0.000222   -0.000174    0.020591    0.000000   -0.000002   -0.004106
     0.000720    0.000100    0.000000    0.327662   -0.107863    0.000017
    -0.000239    0.001138   -0.000002   -0.107863    0.091793   -0.000020
    -0.000004   -0.000004   -0.004106    0.000017   -0.000020    0.020570
     0.000183   -0.001171   -0.000000    0.001015    0.000457    0.000001
     0.000317   -0.000752    0.000000    0.000008    0.000892   -0.000005
     0.000000   -0.000000    0.000253   -0.000001   -0.000002   -0.004087
    -0.000002   -0.000098    0.000001   -0.000887   -0.000935    0.000002
    -0.000098    0.000041    0.000001    0.000552    0.000319   -0.000002
    -0.000001   -0.000001   -0.001192   -0.000001   -0.000002    0.000251


    -0.001414    0.000678   -0.000002    0.001880   -0.007134   -0.000001
     0.000372    0.000381    0.000001    0.001702   -0.003776   -0.000002
    -0.000002    0.000003    0.002038    0.000001   -0.000005    0.001075
    -0.000319   -0.000088   -0.000002    0.000384    0.000669    0.000003
    -0.000090    0.000239   -0.000002    0.000367   -0.001415   -0.000000
    -0.000000   -0.000000   -0.000267   -0.000002   -0.000002    0.002036
    -0.000950   -0.001094    0.000002    0.000029    0.000291    0.000000
    -0.000792   -0.000074   -0.000002    0.000287   -0.000102    0.000002
     0.000000    0.000003    0.002036    0.000000    0.000000   -0.000268
     0.002016    0.001859    0.000001   -0.001116    0.000696   -0.000002
    -0.007006   -0.003909    0.000003    0.001000    0.000084    0.000001
     0.000003    0.000003    0.001063   -0.000003   -0.000001    0.002036
    -0.016503    0.013118   -0.000018   -0.004642    0.003134    0.000002
     0.013120   -0.099613    0.000072   -0.005714    0.002761   -0.000003
    -0.000013    0.000069   -0.009310   -0.000004    0.000002    0.001059
     0.000004   -0.000631    0.000004   -0.067544   -0.042583   -0.000066
     0.008216   -0.001883    0.000001   -0.042578   -0.048710   -0.000047
    -0.000004    0.000001    0.001084   -0.000060   -0.000046   -0.009342
    -0.000148   -0.000126    0.000000    0.000721    0.000100   -0.000000
     0.001358   -0.000419    0.000002   -0.000239    0.001138    0.000002
     0.000002    0.000000    0.000253    0.000004    0.000004   -0.004107
     0.000115    0.000031   -0.000001    0.000183   -0.001171    0.000000
     0.000031   -0.000077    0.000001    0.000317   -0.000752   -0.000000
     0.000001   -0.000001   -0.001190   -0.000000    0.000000    0.000253
     0.000183    0.000317    0.000000   -0.000002   -0.000098   -0.000001
    -0.001171   -0.000752   -0.000000   -0.000098    0.000041   -0.000001
    -0.000000    0.000000    0.000253    0.000001    0.000001   -0.001192
     0.001015    0.000008   -0.000001   -0.000887    0.000552   -0.000001
     0.000457    0.000892   -0.000002   -0.000935    0.000319   -0.000002
     0.000001   -0.000005   -0.004087    0.000002   -0.000002    0.000251
     0.057023   -0.048042    0.000047    0.001046   -0.000322    0.000003
    -0.048042    0.361418   -0.000258    0.000049    0.000766   -0.000005
     0.000047   -0.000258    0.020424    0.000006    0.000002   -0.004069
     0.001046    0.000049    0.000006    0.243965    0.155961    0.000222
    -0.000322    0.000766    0.000002    0.155961    0.175018    0.000174
     0.000003   -0.000005   -0.004069    0.000222    0.000174    0.020605

 Vectors for Translations and Rotations


     0.392114    0.000000    0.000000   -0.000000    0.000001   -0.131247
     0.000000    0.392114    0.000000   -0.000001    0.000000   -0.338298
     0.000000    0.000000    0.392114    0.192354    0.475745   -0.000000
     0.392114    0.000000    0.000000    0.000002    0.000131   -0.358580
     0.000000    0.392114    0.000000   -0.000131    0.000002   -0.055470
     0.000000    0.000000    0.392114    0.508177    0.071275   -0.000000
     0.392114    0.000000    0.000000   -0.000002   -0.000132   -0.227340
     0.000000    0.392114    0.000000    0.000133   -0.000002    0.282819
     0.000000    0.000000    0.392114    0.315833   -0.404457   -0.000000
     0.392114    0.000000    0.000000    0.000000   -0.000000    0.131264
     0.000000    0.392114    0.000000    0.000001   -0.000000    0.338298
     0.000000    0.000000    0.392114   -0.192378   -0.475745    0.000000
     0.392114    0.000000    0.000000    0.000002    0.000134    0.358570
     0.000000    0.392114    0.000000   -0.000134    0.000002    0.055475
     0.000000    0.000000    0.392114   -0.508163   -0.071282    0.000000
     0.392114    0.000000    0.000000   -0.000002   -0.000136    0.227333
     0.000000    0.392114    0.000000    0.000135   -0.000002   -0.282821
     0.000000    0.000000    0.392114   -0.315824    0.404460    0.000000
     0.113636    0.000000    0.000000    0.000000    0.000012   -0.067677
     0.000000    0.113636    0.000000   -0.000012    0.000000   -0.174418
     0.000000    0.000000    0.113636    0.099186    0.245283   -0.000000
     0.113636    0.000000    0.000000    0.000002    0.000132   -0.184891
     0.000000    0.113636    0.000000   -0.000132    0.000002   -0.028602
     0.000000    0.000000    0.113636    0.262026    0.036751   -0.000000
     0.113636    0.000000    0.000000   -0.000002   -0.000139   -0.117211
     0.000000    0.113636    0.000000    0.000139   -0.000002    0.145816
     0.000000    0.000000    0.113636    0.162836   -0.208531   -0.000000
     0.113636    0.000000    0.000000    0.000000    0.000009    0.067675
     0.000000    0.113636    0.000000   -0.000009    0.000000    0.174415
     0.000000    0.000000    0.113636   -0.099183   -0.245278    0.000000
     0.113636    0.000000    0.000000    0.000002    0.000133    0.184890
     0.000000    0.113636    0.000000   -0.000133    0.000002    0.028599
     0.000000    0.000000    0.113636   -0.262025   -0.036747    0.000000
     0.113636    0.000000    0.000000   -0.000002   -0.000139    0.117212
     0.000000    0.113636    0.000000    0.000139   -0.000002   -0.145819
     0.000000    0.000000    0.113636   -0.162837    0.208535    0.000000

 The Projection Matrix


     0.829021   -0.044401   -0.000000   -0.200816   -0.007280   -0.000000
    -0.044401    0.731801    0.000000   -0.121307   -0.172519    0.000000
    -0.000000    0.000000    0.582913   -0.000063    0.000024   -0.285412
    -0.200816   -0.121307   -0.000063    0.717667   -0.019890   -0.000010
    -0.007280   -0.172519    0.000024   -0.019890    0.843170    0.000067
    -0.000000    0.000000   -0.285412   -0.000010    0.000067    0.582922
    -0.183591   -0.076908    0.000063   -0.235273   -0.012611    0.000010
     0.037119   -0.058077   -0.000025    0.101413   -0.138066   -0.000067
     0.000000    0.000000   -0.022087    0.000053    0.000042   -0.285425
    -0.136525    0.044406    0.000000   -0.106685    0.007281    0.000000
     0.044401   -0.039308   -0.000000    0.121307   -0.134988   -0.000000
     0.000000   -0.000000    0.109585    0.000063   -0.000024   -0.022083
    -0.106692    0.121303   -0.000064   -0.025178    0.019890   -0.000011
     0.007281   -0.134987    0.000025    0.019892   -0.150676    0.000068
     0.000000   -0.000000   -0.022094    0.000010   -0.000067    0.109564
    -0.123917    0.076906    0.000065   -0.072237    0.012610    0.000011
    -0.037119   -0.249431   -0.000025   -0.101414   -0.169442   -0.000069
    -0.000000   -0.000000   -0.285424   -0.000053   -0.000042   -0.022087
    -0.053441   -0.022895   -0.000006   -0.068826   -0.003754   -0.000001
    -0.022892   -0.103564    0.000002   -0.062543   -0.054233    0.000006
    -0.000000    0.000000   -0.180329   -0.000032    0.000013   -0.112445
    -0.068825   -0.062548   -0.000063   -0.110856   -0.010256   -0.000010
    -0.003754   -0.054234    0.000025   -0.010256   -0.046145    0.000067
    -0.000000    0.000000   -0.112444   -0.000005    0.000034   -0.180333
    -0.059942   -0.039652    0.000066   -0.086588   -0.006502    0.000011
     0.019138    0.004771   -0.000026    0.052287   -0.036470   -0.000070
     0.000000    0.000000    0.023327    0.000027    0.000022   -0.112445
    -0.035676    0.022894   -0.000004   -0.020291    0.003754   -0.000001
     0.022892    0.014446    0.000002    0.062542   -0.034883    0.000004
     0.000000   -0.000000    0.091210    0.000032   -0.000013    0.023327
    -0.020292    0.062548   -0.000064    0.021740    0.010256   -0.000010
     0.003754   -0.034883    0.000025    0.010255   -0.042972    0.000068
     0.000000   -0.000000    0.023326    0.000005   -0.000034    0.091216
    -0.029175    0.039652    0.000067   -0.002528    0.006502    0.000011
    -0.019138   -0.093888   -0.000026   -0.052288   -0.052647   -0.000071
    -0.000000   -0.000000   -0.112445   -0.000027   -0.000022    0.023329


    -0.183591    0.037119    0.000000   -0.136525    0.044401    0.000000
    -0.076908   -0.058077    0.000000    0.044406   -0.039308   -0.000000
     0.000063   -0.000025   -0.022087    0.000000   -0.000000    0.109585
    -0.235273    0.101413    0.000053   -0.106685    0.121307    0.000063
    -0.012611   -0.138066    0.000042    0.007281   -0.134988   -0.000024
     0.000010   -0.000067   -0.285425    0.000000   -0.000000   -0.022083
     0.794563    0.064296   -0.000053   -0.123912    0.076908   -0.000063
     0.064296    0.766260   -0.000043   -0.037124   -0.249430    0.000025
    -0.000053   -0.000043    0.582910   -0.000000   -0.000000   -0.285413
    -0.123912   -0.037124   -0.000000    0.829016   -0.044406   -0.000000
     0.076908   -0.249430   -0.000000   -0.044406    0.731801    0.000000
    -0.000063    0.000025   -0.285413   -0.000000    0.000000    0.582904
    -0.072236   -0.101410    0.000054   -0.200821   -0.121303    0.000064
     0.012612   -0.169443    0.000043   -0.007282   -0.172521   -0.000025
    -0.000010    0.000067   -0.022089   -0.000000    0.000000   -0.285425
    -0.102072   -0.064294   -0.000054   -0.183594   -0.076906   -0.000065
    -0.064296   -0.073767   -0.000044    0.037124   -0.058076    0.000025
     0.000053    0.000043    0.109581    0.000000    0.000000   -0.022091
    -0.059944    0.019140    0.000005   -0.035675    0.022895    0.000006
    -0.039652    0.004771    0.000004    0.022895    0.014447   -0.000002
     0.000033   -0.000013    0.023322    0.000000   -0.000000    0.091215
    -0.086591    0.052290    0.000053   -0.020289    0.062548    0.000063
    -0.006502   -0.036469    0.000043    0.003754   -0.034882   -0.000025
     0.000005   -0.000035   -0.112450    0.000000   -0.000000    0.023334
    -0.071205    0.033149   -0.000055   -0.029173    0.039652   -0.000066
     0.033150   -0.085798   -0.000045   -0.019140   -0.093887    0.000026
    -0.000027   -0.000022   -0.180329   -0.000000   -0.000000   -0.112440
    -0.029173   -0.019140    0.000003   -0.053442   -0.022894    0.000004
     0.039651   -0.093886    0.000003   -0.022894   -0.103562   -0.000002
    -0.000033    0.000013   -0.112438   -0.000000    0.000000   -0.180329
    -0.002525   -0.052290    0.000053   -0.068828   -0.062548    0.000064
     0.006502   -0.052647    0.000043   -0.003754   -0.054233   -0.000025
    -0.000005    0.000035    0.023335   -0.000000    0.000000   -0.112448
    -0.017911   -0.033150   -0.000056   -0.059944   -0.039652   -0.000067
    -0.033150   -0.003318   -0.000045    0.019141    0.004772    0.000026
     0.000027    0.000022    0.091215    0.000000    0.000000    0.023325


    -0.106692    0.007281    0.000000   -0.123917   -0.037119   -0.000000
     0.121303   -0.134987   -0.000000    0.076906   -0.249431   -0.000000
    -0.000064    0.000025   -0.022094    0.000065   -0.000025   -0.285424
    -0.025178    0.019892    0.000010   -0.072237   -0.101414   -0.000053
     0.019890   -0.150676   -0.000067    0.012610   -0.169442   -0.000042
    -0.000011    0.000068    0.109564    0.000011   -0.000069   -0.022087
    -0.072236    0.012612   -0.000010   -0.102072   -0.064296    0.000053
    -0.101410   -0.169443    0.000067   -0.064294   -0.073767    0.000043
     0.000054    0.000043   -0.022089   -0.000054   -0.000044    0.109581
    -0.200821   -0.007282   -0.000000   -0.183594    0.037124    0.000000
    -0.121303   -0.172521    0.000000   -0.076906   -0.058076    0.000000
     0.000064   -0.000025   -0.285425   -0.000065    0.000025   -0.022091
     0.717674   -0.019892    0.000011   -0.235268    0.101411   -0.000054
    -0.019892    0.843169   -0.000068   -0.012611   -0.138064   -0.000043
     0.000011   -0.000068    0.582935   -0.000011    0.000069   -0.285413
    -0.235268   -0.012611   -0.000011    0.794566    0.064294    0.000054
     0.101411   -0.138064    0.000069    0.064294    0.766259    0.000044
    -0.000054   -0.000043   -0.285413    0.000054    0.000044    0.582914
    -0.020291    0.003754    0.000001   -0.029173   -0.019140   -0.000005
     0.062541   -0.034882   -0.000006    0.039651   -0.093887   -0.000004
    -0.000033    0.000013    0.023329    0.000033   -0.000013   -0.112440
     0.021738    0.010257    0.000010   -0.002527   -0.052291   -0.000053
     0.010256   -0.042972   -0.000067    0.006502   -0.052647   -0.000043
    -0.000005    0.000035    0.091213    0.000005   -0.000035    0.023331
    -0.002530    0.006502   -0.000011   -0.017912   -0.033150    0.000055
    -0.052285   -0.052647    0.000070   -0.033149   -0.003319    0.000045
     0.000028    0.000022    0.023325   -0.000028   -0.000022    0.091212
    -0.068825   -0.003754    0.000001   -0.059943    0.019140   -0.000003
    -0.062540   -0.054234   -0.000004   -0.039650    0.004770   -0.000003
     0.000033   -0.000013   -0.112444   -0.000033    0.000013    0.023323
    -0.110854   -0.010257    0.000010   -0.086590    0.052291   -0.000053
    -0.010255   -0.046145   -0.000068   -0.006501   -0.036470   -0.000043
     0.000005   -0.000035   -0.180329   -0.000005    0.000035   -0.112449
    -0.086587   -0.006502   -0.000011   -0.071204    0.033150    0.000056
     0.052286   -0.036469    0.000071    0.033149   -0.085799    0.000045
    -0.000028   -0.000022   -0.112441    0.000028    0.000022   -0.180330


    -0.053441   -0.022892   -0.000000   -0.068825   -0.003754   -0.000000
    -0.022895   -0.103564    0.000000   -0.062548   -0.054234    0.000000
    -0.000006    0.000002   -0.180329   -0.000063    0.000025   -0.112444
    -0.068826   -0.062543   -0.000032   -0.110856   -0.010256   -0.000005
    -0.003754   -0.054233    0.000013   -0.010256   -0.046145    0.000034
    -0.000001    0.000006   -0.112445   -0.000010    0.000067   -0.180333
    -0.059944   -0.039652    0.000033   -0.086591   -0.006502    0.000005
     0.019140    0.004771   -0.000013    0.052290   -0.036469   -0.000035
     0.000005    0.000004    0.023322    0.000053    0.000043   -0.112450
    -0.035675    0.022895    0.000000   -0.020289    0.003754    0.000000
     0.022895    0.014447   -0.000000    0.062548   -0.034882   -0.000000
     0.000006   -0.000002    0.091215    0.000063   -0.000025    0.023334
    -0.020291    0.062541   -0.000033    0.021738    0.010256   -0.000005
     0.003754   -0.034882    0.000013    0.010257   -0.042972    0.000035
     0.000001   -0.000006    0.023329    0.000010   -0.000067    0.091213
    -0.029173    0.039651    0.000033   -0.002527    0.006502    0.000005
    -0.019140   -0.093887   -0.000013   -0.052291   -0.052647   -0.000035
    -0.000005   -0.000004   -0.112440   -0.000053   -0.000043    0.023331
     0.982507   -0.011804   -0.000003   -0.025426   -0.001936   -0.000000
    -0.011804    0.956665    0.000001   -0.032248   -0.017902    0.000003
    -0.000003    0.000001    0.917085   -0.000033    0.000013   -0.047917
    -0.025426   -0.032248   -0.000033    0.952902   -0.005288   -0.000005
    -0.001936   -0.017902    0.000013   -0.005288    0.986269    0.000035
    -0.000000    0.000003   -0.047917   -0.000005    0.000035    0.917079
    -0.020846   -0.020444    0.000034   -0.034584   -0.003352    0.000006
     0.009868    0.012520   -0.000013    0.026960   -0.008743   -0.000036
     0.000002    0.000002    0.022085    0.000027    0.000022   -0.047917
    -0.008333    0.011804   -0.000002   -0.000401    0.001936   -0.000000
     0.011804    0.017508    0.000001    0.032248   -0.007925    0.000002
     0.000003   -0.000001    0.057087    0.000033   -0.000013    0.022090
    -0.000400    0.032248   -0.000033    0.021271    0.005288   -0.000005
     0.001935   -0.007925    0.000013    0.005288   -0.012095    0.000035
     0.000000   -0.000003    0.022090    0.000005   -0.000035    0.057095
    -0.004981    0.020444    0.000034    0.008758    0.003352    0.000006
    -0.009869   -0.038347   -0.000013   -0.026961   -0.017084   -0.000036
    -0.000002   -0.000002   -0.047912   -0.000027   -0.000022    0.022090


    -0.059942    0.019138    0.000000   -0.035676    0.022892    0.000000
    -0.039652    0.004771    0.000000    0.022894    0.014446   -0.000000
     0.000066   -0.000026    0.023327   -0.000004    0.000002    0.091210
    -0.086588    0.052287    0.000027   -0.020291    0.062542    0.000032
    -0.006502   -0.036470    0.000022    0.003754   -0.034883   -0.000013
     0.000011   -0.000070   -0.112445   -0.000001    0.000004    0.023327
    -0.071205    0.033150   -0.000027   -0.029173    0.039651   -0.000033
     0.033149   -0.085798   -0.000022   -0.019140   -0.093886    0.000013
    -0.000055   -0.000045   -0.180329    0.000003    0.000003   -0.112438
    -0.029173   -0.019140   -0.000000   -0.053442   -0.022894   -0.000000
     0.039652   -0.093887   -0.000000   -0.022894   -0.103562    0.000000
    -0.000066    0.000026   -0.112440    0.000004   -0.000002   -0.180329
    -0.002530   -0.052285    0.000028   -0.068825   -0.062540    0.000033
     0.006502   -0.052647    0.000022   -0.003754   -0.054234   -0.000013
    -0.000011    0.000070    0.023325    0.000001   -0.000004   -0.112444
    -0.017912   -0.033149   -0.000028   -0.059943   -0.039650   -0.000033
    -0.033150   -0.003319   -0.000022    0.019140    0.004770    0.000013
     0.000055    0.000045    0.091212   -0.000003   -0.000003    0.023323
    -0.020846    0.009868    0.000002   -0.008333    0.011804    0.000003
    -0.020444    0.012520    0.000002    0.011804    0.017508   -0.000001
     0.000034   -0.000013    0.022085   -0.000002    0.000001    0.057087
    -0.034584    0.026960    0.000027   -0.000401    0.032248    0.000033
    -0.003352   -0.008743    0.000022    0.001936   -0.007925   -0.000013
     0.000006   -0.000036   -0.047917   -0.000000    0.000002    0.022090
     0.973348    0.017091   -0.000029   -0.004981    0.020443   -0.000034
     0.017091    0.965825   -0.000023   -0.009868   -0.038346    0.000013
    -0.000029   -0.000023    0.917086    0.000002    0.000001   -0.047911
    -0.004981   -0.009868    0.000002    0.982507   -0.011804    0.000002
     0.020443   -0.038346    0.000001   -0.011804    0.956666   -0.000001
    -0.000034    0.000013   -0.047911    0.000002   -0.000001    0.917088
     0.008758   -0.026960    0.000027   -0.025426   -0.032248    0.000033
     0.003352   -0.017083    0.000022   -0.001935   -0.017901   -0.000013
    -0.000006    0.000036    0.022091    0.000000   -0.000002   -0.047915
     0.000825   -0.017091   -0.000029   -0.020845   -0.020444   -0.000034
    -0.017092    0.008350   -0.000023    0.009868    0.012520    0.000013
     0.000029    0.000023    0.057089   -0.000002   -0.000001    0.022085


    -0.020292    0.003754    0.000000   -0.029175   -0.019138   -0.000000
     0.062548   -0.034883   -0.000000    0.039652   -0.093888   -0.000000
    -0.000064    0.000025    0.023326    0.000067   -0.000026   -0.112445
     0.021740    0.010255    0.000005   -0.002528   -0.052288   -0.000027
     0.010256   -0.042972   -0.000034    0.006502   -0.052647   -0.000022
    -0.000010    0.000068    0.091216    0.000011   -0.000071    0.023329
    -0.002525    0.006502   -0.000005   -0.017911   -0.033150    0.000027
    -0.052290   -0.052647    0.000035   -0.033150   -0.003318    0.000022
     0.000053    0.000043    0.023335   -0.000056   -0.000045    0.091215
    -0.068828   -0.003754   -0.000000   -0.059944    0.019141    0.000000
    -0.062548   -0.054233    0.000000   -0.039652    0.004772    0.000000
     0.000064   -0.000025   -0.112448   -0.000067    0.000026    0.023325
    -0.110854   -0.010255    0.000005   -0.086587    0.052286   -0.000028
    -0.010257   -0.046145   -0.000035   -0.006502   -0.036469   -0.000022
     0.000010   -0.000068   -0.180329   -0.000011    0.000071   -0.112441
    -0.086590   -0.006501   -0.000005   -0.071204    0.033149    0.000028
     0.052291   -0.036470    0.000035    0.033150   -0.085799    0.000022
    -0.000053   -0.000043   -0.112449    0.000056    0.000045   -0.180330
    -0.000400    0.001935    0.000000   -0.004981   -0.009869   -0.000002
     0.032248   -0.007925   -0.000003    0.020444   -0.038347   -0.000002
    -0.000033    0.000013    0.022090    0.000034   -0.000013   -0.047912
     0.021271    0.005288    0.000005    0.008758   -0.026961   -0.000027
     0.005288   -0.012095   -0.000035    0.003352   -0.017084   -0.000022
    -0.000005    0.000035    0.057095    0.000006   -0.000036    0.022090
     0.008758    0.003352   -0.000006    0.000825   -0.017092    0.000029
    -0.026960   -0.017083    0.000036   -0.017091    0.008350    0.000023
     0.000027    0.000022    0.022091   -0.000029   -0.000023    0.057089
    -0.025426   -0.001935    0.000000   -0.020845    0.009868   -0.000002
    -0.032248   -0.017901   -0.000002   -0.020444    0.012520   -0.000001
     0.000033   -0.000013   -0.047915   -0.000034    0.000013    0.022085
     0.952902   -0.005288    0.000005   -0.034584    0.026960   -0.000027
    -0.005288    0.986269   -0.000035   -0.003352   -0.008743   -0.000022
     0.000005   -0.000035    0.917079   -0.000006    0.000036   -0.047918
    -0.034584   -0.003352   -0.000006    0.973348    0.017092    0.000029
     0.026960   -0.008743    0.000036    0.017092    0.965824    0.000023
    -0.000027   -0.000022   -0.047918    0.000029    0.000023    0.917084

 Translations and Rotations Projected Out of Hessian

 Projected Mass-Weighted Hessian Matrix:


     0.061923   -0.001850    0.000004   -0.022185   -0.012455   -0.000005
    -0.001850    0.057975    0.000018   -0.007736   -0.017760   -0.000005
     0.000004    0.000018    0.010369   -0.000007   -0.000005   -0.005288
    -0.022185   -0.007736   -0.000007    0.057379   -0.000792   -0.000015
    -0.012455   -0.017760   -0.000005   -0.000792    0.062494    0.000032
    -0.000005   -0.000005   -0.005288   -0.000015    0.000032    0.010394
    -0.004267   -0.003121    0.000002   -0.027673    0.009324    0.000015
     0.000297    0.004452   -0.000000    0.004591   -0.012273   -0.000007
     0.000000   -0.000001    0.000889    0.000016   -0.000005   -0.005292
    -0.000712   -0.001597   -0.000000    0.001069    0.002796    0.000001
    -0.001597   -0.004237   -0.000001    0.006223   -0.000918    0.000001
     0.000000    0.000001   -0.000611    0.000001   -0.000001    0.000884
     0.001068    0.006223   -0.000002   -0.004731   -0.000728    0.000000
     0.002796   -0.000918    0.000001   -0.000728   -0.000211    0.000001
    -0.000001   -0.000001    0.000883   -0.000000   -0.000001   -0.000606
    -0.010083    0.000742    0.000002    0.003468   -0.001416   -0.000001
     0.005454   -0.029799   -0.000009   -0.004822   -0.003287   -0.000001
     0.000001   -0.000008   -0.005271    0.000000   -0.000001    0.000889
    -0.090356    0.029494    0.000006   -0.004682    0.003353    0.000001
     0.029516   -0.025959   -0.000007   -0.005432    0.002837    0.000000
     0.000004   -0.000014   -0.009081    0.000003    0.000004    0.001154
     0.002056   -0.006899   -0.000004   -0.016392    0.013150    0.000013
     0.001864   -0.003896   -0.000003    0.013138   -0.099625   -0.000068
    -0.000001   -0.000003    0.001187    0.000018   -0.000073   -0.009080
    -0.001091    0.001065    0.000004   -0.004575   -0.005701    0.000004
     0.000664   -0.000000    0.000000    0.003048    0.002744   -0.000002
     0.000002   -0.000001    0.001929   -0.000002    0.000003    0.001167
     0.000160   -0.000235    0.000000    0.000481    0.000243   -0.000000
    -0.000232   -0.000343    0.000000   -0.000147   -0.001569    0.000001
     0.000002    0.000004   -0.000481   -0.000003    0.000001    0.001934
    -0.001454    0.000265   -0.000002   -0.000429   -0.000112   -0.000000
     0.000674    0.000369    0.000003   -0.000100    0.000236    0.000000
    -0.000002    0.000001    0.001913   -0.000002   -0.000002   -0.000495
     0.001855    0.001637    0.000001    0.000316    0.000354   -0.000001
    -0.007102   -0.003692   -0.000005    0.000756   -0.001398   -0.000003
    -0.000001   -0.000002    0.001182    0.000002   -0.000000    0.001929


    -0.004267    0.000297    0.000000   -0.000712   -0.001597    0.000000
    -0.003121    0.004452   -0.000001   -0.001597   -0.004237    0.000001
     0.000002   -0.000000    0.000889   -0.000000   -0.000001   -0.000611
    -0.027673    0.004591    0.000016    0.001069    0.006223    0.000001
     0.009324   -0.012273   -0.000005    0.002796   -0.000918   -0.000001
     0.000015   -0.000007   -0.005292    0.000001    0.000001    0.000884
     0.060571    0.002727   -0.000033   -0.010083    0.000739   -0.000002
     0.002727    0.059210   -0.000016    0.005451   -0.029781    0.000009
    -0.000033   -0.000016    0.010392   -0.000001    0.000007   -0.005273
    -0.010083    0.005451   -0.000001    0.061947   -0.001843   -0.000005
     0.000739   -0.029781    0.000007   -0.001843    0.057961   -0.000018
    -0.000002    0.000009   -0.005273   -0.000005   -0.000018    0.010366
     0.003468   -0.004822   -0.000000   -0.022196   -0.007744    0.000007
    -0.001416   -0.003287    0.000001   -0.012464   -0.017765    0.000006
     0.000001    0.000001    0.000889    0.000005    0.000005   -0.005288
    -0.001966    0.002382   -0.000000   -0.004268   -0.003121   -0.000002
     0.002382   -0.002980   -0.000001    0.000297    0.004452    0.000000
     0.000000    0.000001   -0.000619    0.000000    0.000001    0.000889
    -0.000480   -0.001229   -0.000000    0.000160   -0.000234   -0.000000
    -0.000828   -0.000591   -0.000001   -0.000231   -0.000342   -0.000000
    -0.000003    0.000001    0.001924   -0.000002   -0.000004   -0.000480
     0.000081    0.008119    0.000004   -0.001454    0.000265    0.000002
    -0.000622   -0.001893   -0.000001    0.000674    0.000369   -0.000003
    -0.000004   -0.000001    0.001193    0.000002   -0.000001    0.001914
    -0.067514   -0.042652    0.000059    0.001856    0.001637   -0.000001
    -0.042659   -0.048642    0.000046   -0.007102   -0.003691    0.000005
     0.000066    0.000047   -0.009120    0.000001    0.000002    0.001183
    -0.000227   -0.000555    0.000000   -0.090398    0.029507   -0.000004
     0.008162   -0.001567    0.000000    0.029529   -0.025956    0.000007
     0.000000   -0.000005    0.001154   -0.000003    0.000014   -0.009074
    -0.001027   -0.000695    0.000001    0.002056   -0.006899    0.000004
    -0.001103   -0.000063    0.000003    0.001864   -0.003897    0.000002
     0.000002   -0.000002    0.001927    0.000001    0.000003    0.001187
    -0.000018    0.000347   -0.000000   -0.001091    0.001065   -0.000004
     0.000351   -0.000178    0.000000    0.000664    0.000000   -0.000000
    -0.000000    0.000003   -0.000485   -0.000002    0.000001    0.001929


     0.001068    0.002796   -0.000001   -0.010083    0.005454    0.000001
     0.006223   -0.000918   -0.000001    0.000742   -0.029799   -0.000008
    -0.000002    0.000001    0.000883    0.000002   -0.000009   -0.005271
    -0.004731   -0.000728   -0.000000    0.003468   -0.004822    0.000000
    -0.000728   -0.000211   -0.000001   -0.001416   -0.003287   -0.000001
     0.000000    0.000001   -0.000606   -0.000001   -0.000001    0.000889
     0.003468   -0.001416    0.000001   -0.001966    0.002382    0.000000
    -0.004822   -0.003287    0.000001    0.002382   -0.002980    0.000001
    -0.000000    0.000001    0.000889   -0.000000   -0.000001   -0.000619
    -0.022196   -0.012464    0.000005   -0.004268    0.000297    0.000000
    -0.007744   -0.017765    0.000005   -0.003121    0.004452    0.000001
     0.000007    0.000006   -0.005288   -0.000002    0.000000    0.000889
     0.057387   -0.000780    0.000015   -0.027669    0.004590   -0.000016
    -0.000780    0.062494   -0.000033    0.009323   -0.012272    0.000005
     0.000015   -0.000033    0.010395   -0.000015    0.000007   -0.005291
    -0.027669    0.009323   -0.000015    0.060562    0.002720    0.000034
     0.004590   -0.012272    0.000007    0.002720    0.059225    0.000016
    -0.000016    0.000005   -0.005291    0.000034    0.000016    0.010392
     0.000481    0.000244    0.000000   -0.000228   -0.000555   -0.000000
    -0.000146   -0.001568   -0.000001    0.008162   -0.001567   -0.000000
     0.000003   -0.000001    0.001935   -0.000000    0.000005    0.001154
    -0.000430   -0.000111    0.000000   -0.001027   -0.000695   -0.000001
    -0.000100    0.000236   -0.000000   -0.001103   -0.000063   -0.000003
     0.000002    0.000002   -0.000495   -0.000002    0.000002    0.001926
     0.000316    0.000354    0.000001   -0.000018    0.000347    0.000000
     0.000756   -0.001398    0.000003    0.000351   -0.000178   -0.000000
    -0.000002    0.000000    0.001928    0.000000   -0.000003   -0.000486
    -0.004680    0.003353   -0.000001   -0.000480   -0.001229    0.000000
    -0.005432    0.002837   -0.000000   -0.000827   -0.000592    0.000001
    -0.000003   -0.000004    0.001155    0.000003   -0.000001    0.001924
    -0.016393    0.013142   -0.000013    0.000081    0.008119   -0.000004
     0.013130   -0.099610    0.000068   -0.000622   -0.001894    0.000001
    -0.000018    0.000072   -0.009083    0.000004    0.000001    0.001193
    -0.004575   -0.005701   -0.000004   -0.067496   -0.042637   -0.000059
     0.003048    0.002744    0.000002   -0.042643   -0.048634   -0.000046
     0.000002   -0.000003    0.001166   -0.000066   -0.000047   -0.009124


    -0.090356    0.029516    0.000004    0.002056    0.001864   -0.000001
     0.029494   -0.025959   -0.000014   -0.006899   -0.003896   -0.000003
     0.000006   -0.000007   -0.009081   -0.000004   -0.000003    0.001187
    -0.004682   -0.005432    0.000003   -0.016392    0.013138    0.000018
     0.003353    0.002837    0.000004    0.013150   -0.099625   -0.000073
     0.000001    0.000000    0.001154    0.000013   -0.000068   -0.009080
    -0.000480   -0.000828   -0.000003    0.000081   -0.000622   -0.000004
    -0.001229   -0.000591    0.000001    0.008119   -0.001893   -0.000001
    -0.000000   -0.000001    0.001924    0.000004   -0.000001    0.001193
     0.000160   -0.000231   -0.000002   -0.001454    0.000674    0.000002
    -0.000234   -0.000342   -0.000004    0.000265    0.000369   -0.000001
    -0.000000   -0.000000   -0.000480    0.000002   -0.000003    0.001914
     0.000481   -0.000146    0.000003   -0.000430   -0.000100    0.000002
     0.000244   -0.001568   -0.000001   -0.000111    0.000236    0.000002
     0.000000   -0.000001    0.001935    0.000000   -0.000000   -0.000495
    -0.000228    0.008162   -0.000000   -0.001027   -0.001103   -0.000002
    -0.000555   -0.001567    0.000005   -0.000695   -0.000063    0.000002
    -0.000000   -0.000000    0.001154   -0.000001   -0.000003    0.001926
     0.327538   -0.107777   -0.000024    0.001062    0.000015    0.000000
    -0.107777    0.091903    0.000023    0.000574    0.000907    0.000002
    -0.000024    0.000023    0.020838   -0.000001    0.000005   -0.003956
     0.001062    0.000574   -0.000001    0.057154   -0.048050   -0.000047
     0.000015    0.000907    0.000005   -0.048050    0.361467    0.000258
     0.000000    0.000002   -0.003956   -0.000047    0.000258    0.020682
    -0.000858   -0.000862   -0.000001    0.001129    0.000060   -0.000006
     0.000515    0.000226    0.000001   -0.000426    0.000751   -0.000002
     0.000001    0.000002    0.000122   -0.000003    0.000005   -0.003943
    -0.000072    0.000026   -0.000000   -0.000195   -0.000132   -0.000000
     0.000026   -0.000010   -0.000001    0.001241   -0.000434   -0.000002
     0.000000    0.000001   -0.001439   -0.000002   -0.000000    0.000124
    -0.000195    0.001241    0.000002   -0.000017    0.000013    0.000001
    -0.000132   -0.000434    0.000000    0.000013   -0.000079   -0.000001
     0.000000    0.000002    0.000124   -0.000001    0.000001   -0.001456
     0.000691   -0.000312    0.000004    0.000100    0.000306   -0.000000
     0.000137    0.001230    0.000003   -0.001066   -0.000738   -0.000000
    -0.000000    0.000002   -0.003978   -0.000000   -0.000000    0.000126


    -0.001091    0.000664    0.000002    0.000160   -0.000232    0.000002
     0.001065   -0.000000   -0.000001   -0.000235   -0.000343    0.000004
     0.000004    0.000000    0.001929    0.000000    0.000000   -0.000481
    -0.004575    0.003048   -0.000002    0.000481   -0.000147   -0.000003
    -0.005701    0.002744    0.000003    0.000243   -0.001569    0.000001
     0.000004   -0.000002    0.001167   -0.000000    0.000001    0.001934
    -0.067514   -0.042659    0.000066   -0.000227    0.008162    0.000000
    -0.042652   -0.048642    0.000047   -0.000555   -0.001567   -0.000005
     0.000059    0.000046   -0.009120    0.000000    0.000000    0.001154
     0.001856   -0.007102    0.000001   -0.090398    0.029529   -0.000003
     0.001637   -0.003691    0.000002    0.029507   -0.025956    0.000014
    -0.000001    0.000005    0.001183   -0.000004    0.000007   -0.009074
     0.000316    0.000756   -0.000002   -0.004680   -0.005432   -0.000003
     0.000354   -0.001398    0.000000    0.003353    0.002837   -0.000004
     0.000001    0.000003    0.001928   -0.000001   -0.000000    0.001155
    -0.000018    0.000351    0.000000   -0.000480   -0.000827    0.000003
     0.000347   -0.000178   -0.000003   -0.001229   -0.000592   -0.000001
     0.000000   -0.000000   -0.000486    0.000000    0.000001    0.001924
    -0.000858    0.000515    0.000001   -0.000072    0.000026    0.000000
    -0.000862    0.000226    0.000002    0.000026   -0.000010    0.000001
    -0.000001    0.000001    0.000122   -0.000000   -0.000001   -0.001439
     0.001129   -0.000426   -0.000003   -0.000195    0.001241   -0.000002
     0.000060    0.000751    0.000005   -0.000132   -0.000434   -0.000000
    -0.000006   -0.000002   -0.003943   -0.000000   -0.000002    0.000124
     0.244076    0.155948   -0.000222    0.000691   -0.000313   -0.000004
     0.155948    0.175124   -0.000174    0.000138    0.001231   -0.000003
    -0.000222   -0.000174    0.020846    0.000000   -0.000002   -0.003977
[...]
    -0.247687    0.204618    0.274740    0.245350    0.252655   -0.237299
    -0.000326    0.000266    0.000360    0.000318    0.000324   -0.000306

 Vibrational Frequencies in atomic units
    -0.0000000000   -0.0000000000   -0.0000000000   -0.0000000000    0.0000000000    0.0000000000
     0.0051935720    0.0052404491    0.0126521544    0.0132774986    0.0132881730    0.0189384571
     0.0229359880    0.0230215556    0.0320831787    0.0321750882    0.0348012256    0.0365983393
     0.0399299512    0.0400372343    0.0401342558    0.0457319240    0.0485469952    0.0486769916
     0.0631093534    0.0768355257    0.0813571440    0.0816879195    0.1021493447    0.1022575551
     0.3958417163    0.3980446550    0.3985020963    0.4016201992    0.4019798746    0.4040518866
 **********************************************************************
 **                                                                  **
 **                       VIBRATIONAL ANALYSIS                       **
 **                       --------------------                       **
 **                                                                  **
 **        VIBRATIONAL FREQUENCIES (CM**-1) AND NORMAL MODES         **
 **     FORCE CONSTANTS (mDYN/ANGSTROM) AND REDUCED MASSES (AMU)     **
 **                  INFRARED INTENSITIES (KM/MOL)                   **
 **                                                                  **
 **********************************************************************
 

 Mode:                 1                      2                      3
 Frequency:       370.46                 372.13                 578.21
 Force Cnst:      0.2090                 0.2122                 0.2137
 Red. Mass:       2.5852                 2.6003                 1.0849
 IR Active:          YES                    YES                    YES
 IR Intens:        0.001                  0.002                 81.082
 Raman Active:       YES                    YES                    YES
               X      Y      Z        X      Y      Z        X      Y      Z
 C          0.000 -0.000 -0.008   -0.000 -0.000  0.220   -0.000 -0.000 -0.033
 C          0.000 -0.000  0.193    0.000 -0.000 -0.103    0.000 -0.000 -0.035
 C         -0.000  0.000 -0.186    0.000 -0.000 -0.116    0.000  0.000 -0.034
 C         -0.000  0.000 -0.008    0.000  0.000  0.220    0.000  0.000 -0.034
 C         -0.000  0.000  0.193   -0.000  0.000 -0.103   -0.000  0.000 -0.035
 C          0.000 -0.000 -0.186   -0.000  0.000 -0.116   -0.000 -0.000 -0.034
 H          0.000 -0.000 -0.017    0.000 -0.000  0.531   -0.000  0.000  0.408
 H          0.000 -0.000  0.475    0.000  0.000 -0.254    0.000 -0.001  0.406
 H         -0.000 -0.000 -0.450   -0.000 -0.000 -0.286    0.000  0.001  0.406
 H         -0.000  0.000 -0.017    0.000  0.000  0.531    0.000 -0.000  0.409
 H         -0.000  0.000  0.475   -0.000 -0.000 -0.254   -0.000  0.001  0.406
 H          0.000  0.000 -0.450    0.000  0.000 -0.285   -0.000 -0.001  0.406
 TransDip  -0.000 -0.000  0.001   -0.000  0.000 -0.001    0.000 -0.000  0.288

 Mode:                 4                      5                      6
 Frequency:       592.33                 592.57                 707.42
 Force Cnst:      1.1800                 1.1790                 0.8787
 Red. Mass:       5.7082                 5.6987                 2.9800
 IR Active:          YES                    YES                    YES
 IR Intens:        0.001                  0.000                  0.000
 Raman Active:       YES                    YES                    YES
               X      Y      Z        X      Y      Z        X      Y      Z
 C         -0.213 -0.050  0.000    0.251 -0.177  0.000   -0.000 -0.000  0.175
 C          0.051 -0.345  0.000    0.143  0.015  0.000   -0.000  0.000 -0.171
 C          0.210  0.007  0.000    0.194  0.246  0.000    0.000  0.000  0.173
 C          0.213  0.050  0.000   -0.251  0.177  0.000   -0.000 -0.000 -0.175
 C         -0.051  0.345  0.000   -0.143 -0.015  0.000   -0.000  0.000  0.171
 C         -0.210 -0.007  0.000   -0.194 -0.246  0.000    0.000  0.000 -0.173
 H         -0.086  0.275 -0.003    0.327  0.019 -0.001   -0.000 -0.000  0.358
 H          0.058 -0.343 -0.003   -0.262 -0.047 -0.001   -0.000  0.000 -0.384
 H         -0.014  0.286 -0.003    0.317  0.091 -0.001    0.000  0.000  0.368
 H          0.086 -0.275 -0.003   -0.327 -0.019 -0.001   -0.000 -0.000 -0.358
 H         -0.058  0.343 -0.003    0.262  0.047 -0.001   -0.000  0.000  0.384
 H          0.014 -0.286 -0.003   -0.317 -0.091 -0.001    0.000  0.000 -0.368
 TransDip  -0.000 -0.000 -0.001   -0.000 -0.000 -0.000   -0.000 -0.000  0.000

 Mode:                 7                      8                      9
 Frequency:       778.51                 779.96                 920.76
 Force Cnst:      0.4457                 0.4473                 0.7253
 Red. Mass:       1.2482                 1.2479                 1.4521
 IR Active:          YES                    YES                    YES
 IR Intens:        0.000                  0.000                  0.000
 Raman Active:       YES                    YES                    YES
               X      Y      Z        X      Y      Z        X      Y      Z
 C         -0.000  0.000 -0.056    0.000  0.000 -0.062   -0.000 -0.000  0.077
 C         -0.000  0.000 -0.085   -0.000  0.000  0.019   -0.000  0.000 -0.113
 C          0.000 -0.000 -0.023    0.000 -0.000  0.082    0.000  0.000  0.036
 C         -0.000  0.000  0.056    0.000  0.000  0.062    0.000  0.000  0.077
 C         -0.000  0.000  0.085   -0.000  0.000 -0.019    0.000 -0.000 -0.114
 C          0.000 -0.000  0.022    0.000 -0.000 -0.082   -0.000 -0.000  0.036
 H         -0.000 -0.000  0.393   -0.000 -0.000  0.419   -0.000  0.000 -0.380
 H          0.000 -0.000  0.554   -0.000  0.000 -0.132    0.000 -0.000  0.552
 H          0.000 -0.000  0.168   -0.000 -0.000 -0.544    0.000 -0.000 -0.176
 H         -0.000 -0.000 -0.393   -0.000 -0.000 -0.418    0.000 -0.000 -0.379
 H          0.000 -0.000 -0.553   -0.000  0.000  0.133   -0.000  0.000  0.553
 H          0.000 -0.000 -0.167   -0.000 -0.000  0.545   -0.000  0.000 -0.176
 TransDip   0.000 -0.000  0.000   -0.000 -0.000  0.000   -0.000 -0.000 -0.001

 Mode:                10                     11                     12
 Frequency:       922.07                 958.97                 983.41
 Force Cnst:      0.7248                 0.7320                 3.7357
 Red. Mass:       1.4470                 1.3510                 6.5561
 IR Active:          YES                    YES                    YES
 IR Intens:        0.001                  0.000                  0.001
 Raman Active:       YES                    YES                    YES
               X      Y      Z        X      Y      Z        X      Y      Z
 C          0.000 -0.000  0.086   -0.000 -0.000  0.072    0.271 -0.107 -0.000
 C          0.000 -0.000  0.024   -0.000  0.000 -0.072   -0.046  0.288  0.000
 C         -0.000 -0.000 -0.110    0.000  0.000  0.072   -0.223 -0.180  0.000
 C         -0.000  0.000  0.086   -0.000 -0.000 -0.072    0.271 -0.107  0.000
 C         -0.000  0.000  0.024   -0.000  0.000  0.072   -0.046  0.288 -0.000
 C          0.000  0.000 -0.110    0.000  0.000 -0.073   -0.223 -0.180  0.000
 H          0.000  0.000 -0.419   -0.000 -0.000 -0.403    0.263 -0.119  0.000
 H          0.000  0.000 -0.117   -0.000 -0.000  0.398   -0.056  0.284  0.000
 H          0.000  0.000  0.539   -0.000 -0.000 -0.403   -0.220 -0.179  0.001
 H         -0.000 -0.000 -0.421   -0.000 -0.000  0.401    0.263 -0.119 -0.000
 H         -0.000 -0.000 -0.114   -0.000 -0.000 -0.399   -0.056  0.284 -0.001
 H         -0.000 -0.000  0.538   -0.000 -0.000  0.406   -0.220 -0.179 -0.001
 TransDip   0.000  0.000  0.001   -0.000 -0.000 -0.000   -0.001 -0.001 -0.000

 Mode:                13                     14                     15
 Frequency:      1027.20                1028.58                1029.82
 Force Cnst:      0.9066                 3.7188                 0.9114
 Red. Mass:       1.4583                 5.9660                 1.4585
 IR Active:          YES                    YES                    YES
 IR Intens:        6.530                  0.002                  6.490
 Raman Active:       YES                    YES                    YES
               X      Y      Z        X      Y      Z        X      Y      Z
 C          0.094 -0.027  0.000   -0.256  0.097  0.000    0.007  0.063  0.000
 C         -0.038 -0.069 -0.000   -0.044  0.274  0.000    0.049 -0.066 -0.000
 C         -0.008  0.068 -0.000    0.217  0.174 -0.000   -0.085 -0.040  0.000
 C          0.094 -0.027 -0.000    0.255 -0.102  0.000    0.012  0.061 -0.000
 C         -0.037 -0.069  0.000    0.040 -0.268  0.000    0.050 -0.071  0.000
 C         -0.008  0.068  0.000   -0.210 -0.171 -0.000   -0.090 -0.043 -0.000
 H          0.130  0.043  0.000   -0.288  0.091 -0.000    0.180  0.512  0.000
 H         -0.421 -0.134  0.000   -0.059  0.300 -0.001    0.361 -0.024  0.000
 H         -0.292  0.426  0.000    0.242  0.187  0.001   -0.206  0.099 -0.000
 H          0.130  0.042 -0.000    0.273 -0.132 -0.000    0.186  0.511 -0.000
 H         -0.421 -0.134 -0.000    0.032 -0.298 -0.001    0.362 -0.030 -0.000
 H         -0.291  0.425 -0.000   -0.225 -0.195  0.001   -0.211  0.095  0.000
 TransDip  -0.071  0.041 -0.000   -0.001 -0.001  0.000    0.041  0.071  0.000

 Mode:                16                     17                     18
 Frequency:      1099.30                1132.63                1134.14
 Force Cnst:      0.7215                 0.8261                 0.8291
 Red. Mass:       1.0134                 1.0929                 1.0940
 IR Active:          YES                    YES                    YES
 IR Intens:        0.001                  0.000                  0.000
 Raman Active:       YES                    YES                    YES
               X      Y      Z        X      Y      Z        X      Y      Z
 C         -0.003 -0.009 -0.000   -0.000  0.033  0.000    0.023  0.032  0.000
 C          0.008  0.002 -0.000   -0.047 -0.005  0.000    0.005  0.016 -0.000
 C         -0.005  0.008  0.000    0.000 -0.023 -0.000   -0.033  0.031  0.000
 C         -0.003 -0.009  0.000    0.000 -0.033  0.000   -0.023 -0.032  0.000
 C          0.008  0.002  0.000    0.047  0.005  0.000   -0.005 -0.016 -0.000
 C         -0.005  0.008 -0.000   -0.000  0.023 -0.000    0.033 -0.032 -0.000
 H         -0.148 -0.384 -0.000    0.117  0.334  0.000    0.172  0.417  0.000
 H          0.399  0.062 -0.000   -0.565 -0.085  0.000    0.077  0.026  0.000
 H         -0.255  0.320 -0.000    0.121 -0.173  0.000   -0.339  0.413  0.000
 H         -0.149 -0.385  0.000   -0.117 -0.334  0.000   -0.171 -0.415  0.000
 H          0.399  0.062  0.000    0.565  0.085  0.000   -0.079 -0.027  0.000
 H         -0.254  0.318  0.000   -0.121  0.173  0.000    0.340 -0.415  0.000
 TransDip  -0.001 -0.001  0.000    0.000 -0.000  0.000    0.000  0.000  0.000

 Mode:                19                     20                     21
 Frequency:      1291.38                1424.91                1466.23
 Force Cnst:      1.2261                13.4550                 3.1691
 Red. Mass:       1.2479                11.2476                 2.5019
 IR Active:          YES                    YES                    YES
 IR Intens:        0.000                  0.004                  5.683
 Raman Active:       YES                    YES                    YES
               X      Y      Z        X      Y      Z        X      Y      Z
 C          0.022  0.055  0.000   -0.136 -0.365 -0.000    0.128  0.016  0.000
 C          0.060  0.010 -0.000    0.386  0.055 -0.000   -0.105 -0.108 -0.000
 C          0.038 -0.047 -0.000   -0.253  0.313  0.000   -0.087  0.146  0.000
 C         -0.022 -0.056  0.000   -0.136 -0.365  0.000    0.128  0.016 -0.000
 C         -0.060 -0.009 -0.000    0.386  0.055  0.000   -0.105 -0.108  0.000
 C         -0.038  0.047 -0.000   -0.252  0.313 -0.000   -0.087  0.145 -0.000
 H         -0.148 -0.380 -0.000    0.040  0.086  0.001    0.067 -0.206 -0.000
 H         -0.396 -0.061  0.000   -0.084 -0.019  0.000    0.352 -0.056 -0.000
 H         -0.253  0.314  0.000    0.083 -0.105 -0.000    0.340 -0.378 -0.000
 H          0.148  0.380 -0.000    0.040  0.086 -0.001    0.067 -0.206  0.000
 H          0.396  0.061  0.000   -0.084 -0.018 -0.000    0.352 -0.056  0.000
 H          0.253 -0.314  0.000    0.083 -0.104  0.000    0.340 -0.378  0.000
 TransDip  -0.000  0.000 -0.000    0.002 -0.001 -0.000    0.058 -0.049 -0.000

 Mode:                22                     23                     24
 Frequency:      1469.21                1642.95                1643.82
 Force Cnst:      3.1870                11.1473                11.2451
 Red. Mass:       2.5059                 7.0093                 7.0633
 IR Active:          YES                    YES                    YES
 IR Intens:        5.599                  0.000                  0.000
 Raman Active:       YES                    YES                    YES
               X      Y      Z        X      Y      Z        X      Y      Z
 C          0.024  0.170  0.000   -0.007 -0.318 -0.000    0.211  0.192  0.000
 C          0.143 -0.058 -0.000   -0.096  0.152  0.000   -0.378 -0.089  0.000
 C         -0.113 -0.048  0.000    0.188 -0.322 -0.000    0.206 -0.004 -0.000
 C          0.024  0.170 -0.000    0.007  0.318 -0.000   -0.212 -0.192  0.000
 C          0.143 -0.058  0.000    0.096 -0.152  0.000    0.379  0.089  0.000
 C         -0.113 -0.048 -0.000   -0.188  0.323 -0.000   -0.206  0.004 -0.000
 H         -0.222 -0.440 -0.000    0.211  0.199  0.000    0.056 -0.257 -0.000
 H         -0.368 -0.153  0.000    0.034  0.195  0.000    0.331  0.016 -0.000
 H         -0.049 -0.167  0.000   -0.247  0.207  0.000    0.070  0.202 -0.000
 H         -0.222 -0.440  0.000   -0.210 -0.198  0.000   -0.056  0.257 -0.000
 H         -0.368 -0.153 -0.000   -0.034 -0.195  0.000   -0.331 -0.016 -0.000
 H         -0.049 -0.167 -0.000    0.247 -0.207  0.000   -0.070 -0.201 -0.000
 TransDip  -0.048 -0.058  0.000    0.000 -0.000  0.000   -0.000  0.000 -0.000

 Mode:                25                     26                     27
 Frequency:      3234.20                3243.18                3245.05
 Force Cnst:      6.6762                 6.7424                 6.7504
 Red. Mass:       1.0833                 1.0880                 1.0880
 IR Active:          YES                    YES                    YES
 IR Intens:        0.069                  0.002                  0.007
 Raman Active:       YES                    YES                    YES
               X      Y      Z        X      Y      Z        X      Y      Z
 C         -0.030  0.012  0.000   -0.016  0.008  0.000    0.042 -0.015 -0.000
 C          0.005 -0.036 -0.000    0.007 -0.050 -0.000   -0.003  0.006  0.000
 C          0.025  0.020 -0.000    0.021  0.019 -0.000    0.032  0.024 -0.000
 C         -0.029  0.011 -0.000    0.014 -0.008  0.000   -0.042  0.015 -0.000
 C          0.005 -0.036  0.000   -0.007  0.050 -0.000    0.004 -0.009  0.000
 C          0.026  0.021  0.000   -0.021 -0.020 -0.000   -0.032 -0.023 -0.000
 H          0.368 -0.143 -0.000    0.193 -0.077 -0.000   -0.487  0.189  0.000
 H         -0.066  0.426  0.000   -0.089  0.579  0.000    0.013 -0.072 -0.000
 H         -0.303 -0.244  0.000   -0.263 -0.213  0.000   -0.366 -0.293  0.000
 H          0.350 -0.136  0.000   -0.177  0.070 -0.000    0.488 -0.189  0.000
 H         -0.067  0.433 -0.000    0.089 -0.578  0.000   -0.018  0.104 -0.000
 H         -0.319 -0.257 -0.000    0.263  0.213  0.000    0.357  0.285  0.000
 TransDip   0.004 -0.008  0.000   -0.001  0.001 -0.000    0.001 -0.002 -0.000

 Mode:                28                     29                     30
 Frequency:      3257.72                3259.18                3267.56
 Force Cnst:      6.8552                 6.8615                 6.9267
 Red. Mass:       1.0963                 1.0964                 1.1011
 IR Active:          YES                    YES                    YES
 IR Intens:       25.348                 25.409                  0.019
 Raman Active:       YES                    YES                    YES
               X      Y      Z        X      Y      Z        X      Y      Z
 C          0.015 -0.002  0.000   -0.047  0.019  0.000    0.036 -0.014 -0.000
 C          0.008 -0.048 -0.000    0.002  0.013  0.000    0.005 -0.035 -0.000
 C         -0.031 -0.021  0.000   -0.026 -0.024  0.000   -0.030 -0.024  0.000
 C          0.017 -0.003 -0.000   -0.046  0.019 -0.000   -0.038  0.015 -0.000
 C          0.008 -0.048  0.000    0.002  0.010 -0.000   -0.005  0.035 -0.000
 C         -0.030 -0.021 -0.000   -0.028 -0.026 -0.000    0.029  0.023  0.000
 H         -0.160  0.059  0.000    0.528 -0.206 -0.000   -0.385  0.150  0.000
 H         -0.083  0.534  0.000    0.018 -0.139 -0.000   -0.058  0.378  0.000
 H          0.326  0.258 -0.000    0.306  0.249 -0.000    0.328  0.264 -0.000
 H         -0.179  0.066 -0.000    0.518 -0.202  0.000    0.412 -0.160  0.000
 H         -0.083  0.534 -0.000    0.013 -0.106  0.000    0.058 -0.375  0.000
 H          0.323  0.256  0.000    0.324  0.264  0.000   -0.309 -0.248 -0.000
 TransDip  -0.013 -0.161  0.000   -0.161  0.013 -0.000   -0.004 -0.001  0.000

 STANDARD THERMODYNAMIC QUANTITIES AT   298.15 K  AND     1.00 ATM

   This Molecule has  0 Imaginary Frequencies
   Zero point vibrational energy:       62.120 kcal/mol

   Atom    1 Element C  Has Mass   12.00000
   Atom    2 Element C  Has Mass   12.00000
   Atom    3 Element C  Has Mass   12.00000
   Atom    4 Element C  Has Mass   12.00000
   Atom    5 Element C  Has Mass   12.00000
   Atom    6 Element C  Has Mass   12.00000
   Atom    7 Element H  Has Mass    1.00783
   Atom    8 Element H  Has Mass    1.00783
   Atom    9 Element H  Has Mass    1.00783
   Atom   10 Element H  Has Mass    1.00783
   Atom   11 Element H  Has Mass    1.00783
   Atom   12 Element H  Has Mass    1.00783
   Molecular Mass:    78.046980 amu
   Principal axes and moments of inertia in amu*Bohr^2:
                             1           2           3
    Eigenvalues --      316.58827   316.61686   633.20504
          X               0.99990    -0.01412    -0.00000
          Y               0.01412     0.99990     0.00000
          Z               0.00000    -0.00000     1.00000
   Rotational Symmetry Number is   1
   The Molecule is an Asymmetric Top
   Translational Enthalpy:        0.889 kcal/mol
   Rotational Enthalpy:           0.889 kcal/mol
   Vibrational Enthalpy:         63.276 kcal/mol
   gas constant (RT):             0.592 kcal/mol
   Translational Entropy:        38.979  cal/mol.K
   Rotational Entropy:           25.654  cal/mol.K
   Vibrational Entropy:           5.283  cal/mol.K

   Total Enthalpy:               65.645 kcal/mol
   Total Entropy:                69.916  cal/mol.K
Archival summary:
1\1\nia-login05.scinet.local\FREQ\ProcedureUnspecified\BasisUnspecified\66\clavigne\MonMar2914:02:202021MonMar2914:02:202021\0\\#,FREQ,ProcedureUnspecified,BasisUnspecified,\\0,1\C\H,1,2.05383\C,1,2.63574,2,119.998\H,3,2.05346,1,120.004,2,0.0313309,0\C,1,2.63585,2,119.994,3,-179.998,0\H,5,2.05361,1,120.003,2,-0.0761392,0\C,5,2.63575,1,119.998,2,179.929,0\H,7,2.05359,5,120.005,1,-179.959,0\C,7,2.63589,5,119.997,1,0.0355781,0\H,9,2.05378,7,119.998,5,-179.964,0\C,9,2.63581,7,120.004,5,0.0332154,0\H,11,2.05352,9,120.003,7,179.926,0\\\@

 Total job time:  82.21s(wall), 79.20s(cpu) 
 Mon Mar 29 14:02:20 2021

        *************************************************************
        *                                                           *
        *  Thank you very much for using Q-Chem.  Have a nice day.  *
        *                                                           *
        *************************************************************


