
Running Job 1 of 1 qchem.inp
qchem qchem.inp_275543.0 ./qchem.scratch/ 0
/gpfs/fs1/scinet/niagara/software/commercial/qc53/exe/qcprog.exe_s qchem.inp_275543.0 ./qchem.scratch/
                  Welcome to Q-Chem
     A Quantum Leap Into The Future Of Chemistry


 Q-Chem 5.3, Q-Chem, Inc., Pleasanton, CA (2020)

 License issued to: SRG Alan Aspuru-Guzik, University of Toronto

 Yihan Shao,  Zhengting Gan,  E. Epifanovsky,  A. T. B. Gilbert,  M. Wormit,  
 J. Kussmann,  A. W. Lange,  A. Behn,  Jia Deng,  Xintian Feng,  D. Ghosh,  
 M. Goldey,  P. R. Horn,  L. D. Jacobson,  I. Kaliman,  T. Kus,  A. Landau,  
 Jie Liu,  E. I. Proynov,  R. M. Richard,  R. P. Steele,  E. J. Sundstrom,  
 H. L. Woodcock III,  P. M. Zimmerman,  D. Zuev,  B. Alam,  B. Albrecht,  
 A. Aldossary,  E. Alguire,  S. A. Baeppler,  D. Barton,  Z. Benda,  
 Y. A. Bernard,  E. J. Berquist,  K. B. Bravaya,  H. Burton,  K. Carter-Fenk,  
 D. Casanova,  Chun-Min Chang,  Yunqing Chen,  A. Chien,  K. D. Closser,  
 M. P. Coons,  S. Coriani,  S. Dasgupta,  A. L. Dempwolff,  M. Diedenhofen,  
 Hainam Do,  R. G. Edgar,  Po-Tung Fang,  S. Faraji,  S. Fatehi,  
 Qingguo Feng,  J. Fosso-Tande,  J. Gayvert,  Qinghui Ge,  A. Ghysels,  
 G. Gidofalvi,  J. Gomes,  J. Gonthier,  S. Gulania,  A. Gunina,  D. Hait,  
 M. W. D. Hanson-Heine,  S. Hammes-Schiffer,  P. H. P. Harbach,  
 A. W. Hauser,  M. F. Herbst,  J. E. Herr,  E. G. Hohenstein,  Z. C. Holden,  
 S. Houck,  Kerwin Hui,  B. C. Huynh,  M. Ivanov,  T.-C. Jagau,  Hyunjun Ji,  
 B. Kaduk,  K. Khistyaev,  Jaehoon Kim,  P. Klunzinger,  K. Koh,  
 D. Kosenkov,  L. Koulias,  T. Kowalczyk,  C. M. Krauter,  A. Kunitsa,  
 Ka Un Lao,  A. Laurent,  K. V. Lawler,  Joonho Lee,  D. Lefrancois,  
 S. Lehtola,  D. S. Levine,  Yi-Pei Li,  You-Sheng Lin,  Fenglai Liu,  
 Kuan-Yu Liu,  E. Livshits,  M. Loipersberger,  A. Luenser,  A. Manjanath,  
 P. Manohar,  E. Mansoor,  S. F. Manzer,  Shan-Ping Mao,  Yuezhi Mao,  
 N. Mardirossian,  A. V. Marenich,  T. Markovich,  L. A. Martinez-Martinez,  
 S. A. Maurer,  N. J. Mayhall,  S. C. McKenzie,  J.-M. Mewes,  P. Morgante,  
 A. F. Morrison,  J. W. Mullinax,  K. Nanda,  T. S. Nguyen-Beck,  
 R. Olivares-Amaya,  K. J. Oosterbaan,  J. A. Parkhill,  S. K. Paul,  
 F. Pavosevic,  Zheng Pei,  T. M. Perrine,  F. Plasser,  P. Pokhilko,  
 S. Prager,  A. Prociuk,  E. Ramos,  B. Rana,  D. R. Rehn,  F. Rob,  
 E. Rossomme,  M. Scheurer,  M. Schneider,  N. Sergueev,  S. M. Sharada,  
 S. Sharma,  W. Skomorowski,  D. W. Small,  T. Stauch,  C. J. Stein,  
 T. Stein,  Yu-Chuan Su,  S. P. Veccham,  Zhen Tao,  A. J. W. Thom,  
 A. Tkatchenko,  T. Tsuchimochi,  N. M. Tubman,  L. Vogt,  M. L. Vidal,  
 O. Vydrov,  M. A. Watson,  J. Wenzel,  M. de Wergifosse,  T. A. Wesolowski,  
 A. White,  J. Witte,  A. Yamada,  Jun Yang,  K. Yao,  S. Yeganeh,  
 S. R. Yost,  Zhi-Qiang You,  A. Zech,  Igor Ying Zhang,  Xing Zhang,  
 Yan Zhao,  Ying Zhu,  B. R. Brooks,  G. K. L. Chan,  C. J. Cramer,  
 M. S. Gordon,  W. J. Hehre,  A. Klamt,  M. W. Schmidt,  C. D. Sherrill,  
 D. G. Truhlar,  A. Aspuru-Guzik,  R. Baer,  A. T. Bell,  N. A. Besley,  
 Jeng-Da Chai,  A. E. DePrince, III,  R. A. DiStasio Jr.,  A. Dreuw,  
 B. D. Dunietz,  T. R. Furlani,  Chao-Ping Hsu,  Yousung Jung,  Jing Kong,  
 D. S. Lambrecht,  WanZhen Liang,  C. Ochsenfeld,  V. A. Rassolov,  
 L. V. Slipchenko,  J. E. Subotnik,  T. Van Voorhis,  J. M. Herbert,  
 A. I. Krylov,  P. M. W. Gill,  M. Head-Gordon

 Contributors to earlier versions of Q-Chem not listed above: 
 R. D. Adamson,  B. Austin,  J. Baker,  G. J. O. Beran,  K. Brandhorst,  
 S. T. Brown,  E. F. C. Byrd,  A. K. Chakraborty,  C.-L. Cheng,  
 Siu Hung Chien,  D. M. Chipman,  D. L. Crittenden,  H. Dachsel,  
 R. J. Doerksen,  A. D. Dutoi,  L. Fusti-Molnar,  W. A. Goddard III,  
 A. Golubeva-Zadorozhnaya,  S. R. Gwaltney,  G. Hawkins,  A. Heyden,  
 S. Hirata,  G. Kedziora,  F. J. Keil,  C. Kelley,  Jihan Kim,  R. A. King,  
 R. Z. Khaliullin,  P. P. Korambath,  W. Kurlancheek,  A. M. Lee,  M. S. Lee,  
 S. V. Levchenko,  Ching Yeh Lin,  D. Liotard,  R. C. Lochan,  I. Lotan,  
 P. E. Maslen,  N. Nair,  D. P. O'Neill,  D. Neuhauser,  E. Neuscamman,  
 C. M. Oana,  R. Olson,  B. Peters,  R. Peverati,  P. A. Pieniazek,  
 Y. M. Rhee,  J. Ritchie,  M. A. Rohrdanz,  E. Rosta,  N. J. Russ,  
 H. F. Schaefer III,  N. E. Schultz,  N. Shenvi,  A. C. Simmonett,  A. Sodt,  
 D. Stuck,  K. S. Thanthiriwatte,  V. Vanovschi,  Tao Wang,  A. Warshel,  
 C. F. Williams,  Q. Wu,  X. Xu,  W. Zhang

 Please cite Q-Chem as follows:
 Y. Shao et al., Mol. Phys. 113, 184-215 (2015)
 DOI: 10.1080/00268976.2014.952696

 Q-Chem 5.3.2 for Intel X86 EM64T Linux

 Parts of Q-Chem use Armadillo 9.800.1 (Horizon Scraper).
 http://arma.sourceforge.net/

 Q-Chem begins on Sun Mar 28 10:49:02 2021  

Host: 
0

     Scratch files written to ./qchem.scratch//
 Dec820 |scratch|qcdevops|jenkins|workspace|build_RNUM 6959   
Processing $rem in /gpfs/fs1/scinet/niagara/software/commercial/qc53/config/preferences:
Processing $rem in /home/p/pbrumer/clavigne/.qchemrc:
Requested ECP is DEF2-ECP

Checking the input file for inconsistencies... 	...done.

--------------------------------------------------------------
User input:
--------------------------------------------------------------
$molecule
0 1
1   0   0   0.944863062283
1   0   0   -0.944863062283
$end

$rem
method  pbe
basis def2-SVP
symmetry false
sym_ignore true
ecp def2-ecp
mem_total 35000
scf_guess read
jobtype freq
input_bohr true
hess_and_grad true
vibman_print 6
$end

$comment
this is a test run
$end
--------------------------------------------------------------
 ----------------------------------------------------------------
             Standard Nuclear Orientation (Bohr)
    I     Atom           X                Y                Z
 ----------------------------------------------------------------
    1      H       0.0000000000     0.0000000000     0.9448630623
    2      H       0.0000000000     0.0000000000    -0.9448630623
 ----------------------------------------------------------------
 Nuclear Repulsion Energy =           0.52917721 hartrees
 There are        1 alpha and        1 beta electrons
 Requested basis set is def2-SVP
 There are 6 shells and 10 basis functions

 Total QAlloc Memory Limit  35000 MB
 Mega-Array Size      2018 MB
 MEM_STATIC part      2048 MB

                       Distance Matrix (Bohrs)
             H (  1)
   H (  2)  1.889726
 
 A cutoff of  1.0D-11 yielded     21 shell pairs
 There are        61 function pairs
 Smallest overlap matrix eigenvalue = 1.14E-01
 Guess MOs from SCF MO coefficient file

 -----------------------------------------------------------------------
  General SCF calculation program by
  Eric Jon Sundstrom, Paul Horn, Yuezhi Mao, Dmitri Zuev, Alec White,
  David Stuck, Shaama M.S., Shane Yost, Joonho Lee, David Small,
  Daniel Levine, Susi Lehtola, Hugh Burton, Evgeny Epifanovsky,
  Bang C. Huynh
 -----------------------------------------------------------------------
 Exchange:  PBE      Correlation:  PBE
 Using SG-1 standard quadrature grid
 A restricted SCF calculation will be
 performed using DIIS
 SCF converges when DIIS error is below 1.0e-08
 ---------------------------------------
  Cycle       Energy         DIIS error
 ---------------------------------------
    1      -1.1388981371      9.82e-11  
    2      -1.1388981371      1.79e-11  Convergence criterion met
 ---------------------------------------
 SCF time:   CPU 0.04s  wall 0.00s 
 SCF   energy in the final basis set =       -1.1388981371
 Total energy in the final basis set =       -1.1388981371
 
 --------------------------------------------------------------
 
                    Orbital Energies (a.u.)
 --------------------------------------------------------------
 
 Alpha MOs
 -- Occupied --
 -0.3389
 -- Virtual --
 -0.0087   0.3563   0.5488   1.1259   1.1259   1.4511   1.7004   1.7004
  2.5788
 --------------------------------------------------------------
 
          Ground-State Mulliken Net Atomic Charges

     Atom                 Charge (a.u.)
  ----------------------------------------
      1 H                     0.000000
      2 H                    -0.000000
  ----------------------------------------
  Sum of atomic charges =     0.000000

 -----------------------------------------------------------------
                    Cartesian Multipole Moments
 -----------------------------------------------------------------
    Charge (ESU x 10^10)
                 0.0000
    Dipole Moment (Debye)
         X      -0.0000      Y       0.0000      Z       0.0000
       Tot       0.0000
    Quadrupole Moments (Debye-Ang)
        XX      -2.3369     XY       0.0000     YY      -2.3369
        XZ       0.0000     YZ      -0.0000     ZZ      -1.5127
    Octopole Moments (Debye-Ang^2)
       XXX      -0.0000    XXY       0.0000    XYY      -0.0000
       YYY       0.0000    XXZ       0.0000    XYZ      -0.0000
       YYZ       0.0000    XZZ      -0.0000    YZZ       0.0000
       ZZZ       0.0000
    Hexadecapole Moments (Debye-Ang^3)
      XXXX      -2.4913   XXXY       0.0000   XXYY      -0.8304
      XYYY       0.0000   YYYY      -2.4913   XXXZ       0.0000
      XXYZ      -0.0000   XYYZ       0.0000   YYYZ      -0.0000
      XXZZ      -1.1955   XYZZ       0.0000   YYZZ      -1.1955
      XZZZ       0.0000   YZZZ      -0.0000   ZZZZ      -4.4278
 -----------------------------------------------------------------
 Calculating analytic gradient of the SCF energy
 Gradient of SCF Energy
            1           2
    1  -0.0000000   0.0000000
    2   0.0000000  -0.0000000
    3   0.0793038  -0.0793038
 Max gradient component =       7.930E-02
 RMS gradient           =       4.579E-02
 Calculating MO derivatives via CPSCF
    1     6     3    0.1440690  
    2     8     1    0.0012369  
    3     9     0    0.0000000  Converged
 Time for AOints: 0.0 s (CPU) 0.0 s (wall)
 ------------------------------------------------------------------------------
                     AOints        : Timing summary (seconds)
 ------------------------------------------------------------------------------
     job step          cpu (% of tot)      sys (% of tot)     wall (% of tot)
 ------------------------------------------------------------------------------
  AOints            0.3089E-02 ( 1.6)   0.0000E+00 ( 0.0)   0.3096E-02 ( 1.0)
 ------------------------------------------------------------------------------
   Grand Totals     0.1894E+00          0.2000E-05          0.3036E+00
 ------------------------------------------------------------------------------
 Polarizability Matrix (a.u.)
            1           2           3
    1  -1.1025698  -0.0000000   0.0000000
    2  -0.0000000  -1.1025698   0.0000000
    3   0.0000000   0.0000000 -10.3464393
 Calculating analytic Hessian of the SCF energy
 
 Direct stationary perturbation theory relativistic correction:
 
 rels  =       0.000008450410
 relv  =      -0.000036063785
 rel2e =       0.000000000000
 E_rel =      -0.000027613375
 
 Hessian of the SCF Energy
            1           2           3           4           5           6
    1   0.0419670   0.0000000   0.0000000  -0.0419670  -0.0000000  -0.0000000
    2   0.0000000   0.0419670  -0.0000000  -0.0000000  -0.0419670   0.0000000
    3   0.0000000  -0.0000000   0.0716491  -0.0000000   0.0000000  -0.0716491
    4  -0.0419670  -0.0000000  -0.0000000   0.0419670   0.0000000   0.0000000
    5  -0.0000000  -0.0419670   0.0000000   0.0000000   0.0419670  -0.0000000
    6  -0.0000000   0.0000000  -0.0716491   0.0000000  -0.0000000   0.0716491

 Mass-Weighted Hessian Matrix:


     0.041641    0.000000    0.000000   -0.041641   -0.000000   -0.000000
     0.000000    0.041641   -0.000000   -0.000000   -0.041641    0.000000
     0.000000   -0.000000    0.071092   -0.000000    0.000000   -0.071092
    -0.041641   -0.000000   -0.000000    0.041641    0.000000    0.000000
    -0.000000   -0.041641    0.000000    0.000000    0.041641   -0.000000
    -0.000000    0.000000   -0.071092    0.000000   -0.000000    0.071092

 Vectors for Translations and Rotations


     0.707107    0.000000    0.000000    0.000000   -0.707107    0.000000
     0.000000    0.707107    0.000000    0.000000    0.000000    0.707107
     0.000000    0.000000    0.707107    0.000000    0.000000    0.000000
     0.707107    0.000000    0.000000    0.000000    0.707107    0.000000
     0.000000    0.707107    0.000000    0.000000    0.000000   -0.707107
     0.000000    0.000000    0.707107    0.000000    0.000000    0.000000

 The Projection Matrix


     0.000000    0.000000    0.000000   -0.000000    0.000000    0.000000
     0.000000    0.000000    0.000000    0.000000   -0.000000    0.000000
     0.000000    0.000000    0.500000    0.000000    0.000000   -0.500000
    -0.000000    0.000000    0.000000    0.000000    0.000000    0.000000
     0.000000   -0.000000    0.000000    0.000000    0.000000    0.000000
     0.000000    0.000000   -0.500000    0.000000    0.000000    0.500000

 Translations and Rotations Projected Out of Hessian

 Projected Mass-Weighted Hessian Matrix:


     0.000000    0.000000    0.000000   -0.000000   -0.000000   -0.000000
     0.000000    0.000000   -0.000000   -0.000000   -0.000000    0.000000
     0.000000   -0.000000    0.071092   -0.000000    0.000000   -0.071092
    -0.000000   -0.000000   -0.000000    0.000000    0.000000    0.000000
    -0.000000   -0.000000    0.000000    0.000000    0.000000   -0.000000
    -0.000000    0.000000   -0.071092    0.000000   -0.000000    0.071092

 Eigenvectors of Proj. Mass-Weighted Hessian Matrix:


     0.000000    0.707107    0.000000   -0.000000   -0.707107    0.000000
     0.525731    0.000000   -0.000000    0.850651   -0.000000   -0.000000
     0.000000   -0.000000    0.707107    0.000000    0.000000    0.707107
    -0.000000    0.707107   -0.000000    0.000000    0.707107   -0.000000
     0.850651   -0.000000    0.000000   -0.525731    0.000000    0.000000
     0.000000    0.000000    0.707107    0.000000    0.000000   -0.707107

 Vibrational Frequencies in atomic units
    -0.0000000000   -0.0000000000    0.0000000000    0.0000000000    0.0000000000    0.1421848675
 **********************************************************************
 **                                                                  **
 **                       VIBRATIONAL ANALYSIS                       **
 **                       --------------------                       **
 **                                                                  **
 **        VIBRATIONAL FREQUENCIES (CM**-1) AND NORMAL MODES         **
 **     FORCE CONSTANTS (mDYN/ANGSTROM) AND REDUCED MASSES (AMU)     **
 **                  INFRARED INTENSITIES (KM/MOL)                   **
 **                                                                  **
 **********************************************************************
 

 Mode:                 1
 Frequency:      1938.35
 Force Cnst:      2.2310
 Red. Mass:       1.0078
 IR Active:          YES
 IR Intens:        0.000
 Raman Active:       YES
               X      Y      Z        X      Y      Z        X      Y      Z
 H          0.000 -0.000  0.707
 H         -0.000  0.000 -0.707
 TransDip  -0.000  0.000  0.000

 STANDARD THERMODYNAMIC QUANTITIES AT   298.15 K  AND     1.00 ATM

   This Molecule has  0 Imaginary Frequencies
   Zero point vibrational energy:        2.771 kcal/mol


 Q-Chem warning in module 0, line  389:

  SYM_IGNORE is turned on for a linear molecule

    We detect a D*h symmetry
   Atom    1 Element H  Has Mass    1.00783
   Atom    2 Element H  Has Mass    1.00783
   Molecular Mass:     2.015660 amu
   Principal axes and moments of inertia in amu*Bohr^2:
                             1           2           3
    Eigenvalues --        0.00000     1.79951     1.79951
          X               0.00000     0.00000     1.00000
          Y               0.00000     1.00000     0.00000
          Z               1.00000     0.00000     0.00000
   Rotational Symmetry Number is   2
   The Molecule is a Symmetric Top
   Translational Enthalpy:        0.889 kcal/mol
   Rotational Enthalpy:           0.889 kcal/mol
   Vibrational Enthalpy:          2.771 kcal/mol
   gas constant (RT):             0.592 kcal/mol
   Translational Entropy:        28.080  cal/mol.K
   Rotational Entropy:            4.234  cal/mol.K
   Vibrational Entropy:           0.002  cal/mol.K

   Total Enthalpy:                5.141 kcal/mol
   Total Entropy:                32.316  cal/mol.K
Archival summary:
1\1\nia0002.scinet.local\FREQ\ProcedureUnspecified\BasisUnspecified\2\clavigne\SunMar2810:49:032021SunMar2810:49:032021\0\\#,FREQ,ProcedureUnspecified,BasisUnspecified,\\0,1\H\H,1,1.88973\\\@

 Total job time:  0.73s(wall), 0.38s(cpu) 
 Sun Mar 28 10:49:03 2021

        *************************************************************
        *                                                           *
        *  Thank you very much for using Q-Chem.  Have a nice day.  *
        *                                                           *
        *************************************************************


