
Running Job 1 of 1 charmm.inp
qchem charmm.inp_112504.0 ./charmm.save/ 0
/gpfs/fs1/scinet/niagara/software/commercial/qc53/exe/qcprog.exe_s charmm.inp_112504.0 ./charmm.save/
                  Welcome to Q-Chem
     A Quantum Leap Into The Future Of Chemistry


 Q-Chem 5.3, Q-Chem, Inc., Pleasanton, CA (2020)

 License issued to: SRG Alan Aspuru-Guzik, University of Toronto

 Yihan Shao,  Zhengting Gan,  E. Epifanovsky,  A. T. B. Gilbert,  M. Wormit,  
 J. Kussmann,  A. W. Lange,  A. Behn,  Jia Deng,  Xintian Feng,  D. Ghosh,  
 M. Goldey,  P. R. Horn,  L. D. Jacobson,  I. Kaliman,  T. Kus,  A. Landau,  
 Jie Liu,  E. I. Proynov,  R. M. Richard,  R. P. Steele,  E. J. Sundstrom,  
 H. L. Woodcock III,  P. M. Zimmerman,  D. Zuev,  B. Alam,  B. Albrecht,  
 A. Aldossary,  E. Alguire,  S. A. Baeppler,  D. Barton,  Z. Benda,  
 Y. A. Bernard,  E. J. Berquist,  K. B. Bravaya,  H. Burton,  K. Carter-Fenk,  
 D. Casanova,  Chun-Min Chang,  Yunqing Chen,  A. Chien,  K. D. Closser,  
 M. P. Coons,  S. Coriani,  S. Dasgupta,  A. L. Dempwolff,  M. Diedenhofen,  
 Hainam Do,  R. G. Edgar,  Po-Tung Fang,  S. Faraji,  S. Fatehi,  
 Qingguo Feng,  J. Fosso-Tande,  J. Gayvert,  Qinghui Ge,  A. Ghysels,  
 G. Gidofalvi,  J. Gomes,  J. Gonthier,  S. Gulania,  A. Gunina,  D. Hait,  
 M. W. D. Hanson-Heine,  S. Hammes-Schiffer,  P. H. P. Harbach,  
 A. W. Hauser,  M. F. Herbst,  J. E. Herr,  E. G. Hohenstein,  Z. C. Holden,  
 S. Houck,  Kerwin Hui,  B. C. Huynh,  M. Ivanov,  T.-C. Jagau,  Hyunjun Ji,  
 B. Kaduk,  K. Khistyaev,  Jaehoon Kim,  P. Klunzinger,  K. Koh,  
 D. Kosenkov,  L. Koulias,  T. Kowalczyk,  C. M. Krauter,  A. Kunitsa,  
 Ka Un Lao,  A. Laurent,  K. V. Lawler,  Joonho Lee,  D. Lefrancois,  
 S. Lehtola,  D. S. Levine,  Yi-Pei Li,  You-Sheng Lin,  Fenglai Liu,  
 Kuan-Yu Liu,  E. Livshits,  M. Loipersberger,  A. Luenser,  A. Manjanath,  
 P. Manohar,  E. Mansoor,  S. F. Manzer,  Shan-Ping Mao,  Yuezhi Mao,  
 N. Mardirossian,  A. V. Marenich,  T. Markovich,  L. A. Martinez-Martinez,  
 S. A. Maurer,  N. J. Mayhall,  S. C. McKenzie,  J.-M. Mewes,  P. Morgante,  
 A. F. Morrison,  J. W. Mullinax,  K. Nanda,  T. S. Nguyen-Beck,  
 R. Olivares-Amaya,  K. J. Oosterbaan,  J. A. Parkhill,  S. K. Paul,  
 F. Pavosevic,  Zheng Pei,  T. M. Perrine,  F. Plasser,  P. Pokhilko,  
 S. Prager,  A. Prociuk,  E. Ramos,  B. Rana,  D. R. Rehn,  F. Rob,  
 E. Rossomme,  M. Scheurer,  M. Schneider,  N. Sergueev,  S. M. Sharada,  
 S. Sharma,  W. Skomorowski,  D. W. Small,  T. Stauch,  C. J. Stein,  
 T. Stein,  Yu-Chuan Su,  S. P. Veccham,  Zhen Tao,  A. J. W. Thom,  
 A. Tkatchenko,  T. Tsuchimochi,  N. M. Tubman,  L. Vogt,  M. L. Vidal,  
 O. Vydrov,  M. A. Watson,  J. Wenzel,  M. de Wergifosse,  T. A. Wesolowski,  
 A. White,  J. Witte,  A. Yamada,  Jun Yang,  K. Yao,  S. Yeganeh,  
 S. R. Yost,  Zhi-Qiang You,  A. Zech,  Igor Ying Zhang,  Xing Zhang,  
 Yan Zhao,  Ying Zhu,  B. R. Brooks,  G. K. L. Chan,  C. J. Cramer,  
 M. S. Gordon,  W. J. Hehre,  A. Klamt,  M. W. Schmidt,  C. D. Sherrill,  
 D. G. Truhlar,  A. Aspuru-Guzik,  R. Baer,  A. T. Bell,  N. A. Besley,  
 Jeng-Da Chai,  A. E. DePrince, III,  R. A. DiStasio Jr.,  A. Dreuw,  
 B. D. Dunietz,  T. R. Furlani,  Chao-Ping Hsu,  Yousung Jung,  Jing Kong,  
 D. S. Lambrecht,  WanZhen Liang,  C. Ochsenfeld,  V. A. Rassolov,  
 L. V. Slipchenko,  J. E. Subotnik,  T. Van Voorhis,  J. M. Herbert,  
 A. I. Krylov,  P. M. W. Gill,  M. Head-Gordon

 Contributors to earlier versions of Q-Chem not listed above: 
 R. D. Adamson,  B. Austin,  J. Baker,  G. J. O. Beran,  K. Brandhorst,  
 S. T. Brown,  E. F. C. Byrd,  A. K. Chakraborty,  C.-L. Cheng,  
 Siu Hung Chien,  D. M. Chipman,  D. L. Crittenden,  H. Dachsel,  
 R. J. Doerksen,  A. D. Dutoi,  L. Fusti-Molnar,  W. A. Goddard III,  
 A. Golubeva-Zadorozhnaya,  S. R. Gwaltney,  G. Hawkins,  A. Heyden,  
 S. Hirata,  G. Kedziora,  F. J. Keil,  C. Kelley,  Jihan Kim,  R. A. King,  
 R. Z. Khaliullin,  P. P. Korambath,  W. Kurlancheek,  A. M. Lee,  M. S. Lee,  
 S. V. Levchenko,  Ching Yeh Lin,  D. Liotard,  R. C. Lochan,  I. Lotan,  
 P. E. Maslen,  N. Nair,  D. P. O'Neill,  D. Neuhauser,  E. Neuscamman,  
 C. M. Oana,  R. Olson,  B. Peters,  R. Peverati,  P. A. Pieniazek,  
 Y. M. Rhee,  J. Ritchie,  M. A. Rohrdanz,  E. Rosta,  N. J. Russ,  
 H. F. Schaefer III,  N. E. Schultz,  N. Shenvi,  A. C. Simmonett,  A. Sodt,  
 D. Stuck,  K. S. Thanthiriwatte,  V. Vanovschi,  Tao Wang,  A. Warshel,  
 C. F. Williams,  Q. Wu,  X. Xu,  W. Zhang

 Please cite Q-Chem as follows:
 Y. Shao et al., Mol. Phys. 113, 184-215 (2015)
 DOI: 10.1080/00268976.2014.952696

 Q-Chem 5.3.2 for Intel X86 EM64T Linux

 Parts of Q-Chem use Armadillo 9.800.1 (Horizon Scraper).
 http://arma.sourceforge.net/

 Q-Chem begins on Thu Mar 18 14:55:55 2021  

Host: 
0

     Scratch files written to ./charmm.save//
 Dec820 |scratch|qcdevops|jenkins|workspace|build_RNUM 6959   
Processing $rem in /gpfs/fs1/scinet/niagara/software/commercial/qc53/config/preferences:
Processing $rem in /home/p/pbrumer/clavigne/.qchemrc:

Checking the input file for inconsistencies... 	...done.
 ----------------------------------------------------------------
             Standard Nuclear Orientation (Angstroms)
    I     Atom           X                Y                Z
 ----------------------------------------------------------------
    1      O       1.0541800000     0.0316100000    -0.0536100000
    2      H       0.7753300000    -0.4894900000    -0.8215100000
    3      H       2.0220700000     0.0055300000    -0.0920300000
 ----------------------------------------------------------------
 Nuclear Repulsion Energy =           9.08422225 hartrees
 There are        5 alpha and        5 beta electrons
 Requested basis set is 6-31G
 There are 7 shells and 13 basis functions

 Total QAlloc Memory Limit  20480 MB
 Mega-Array Size      2002 MB
 MEM_STATIC part      2048 MB

                       Distance Matrix (Angstroms)
             O (  1)   H (  2)
   H (  2)  0.969006
   H (  3)  0.969003  1.526940
 
 A cutoff of  1.0D-11 yielded     28 shell pairs
 There are       103 function pairs
 Smallest overlap matrix eigenvalue = 6.93E-02
 Guess from superposition of atomic densities
 Warning:  Energy on first SCF cycle will be non-variational
 SAD guess density has 10.000000 electrons

 -----------------------------------------------------------------------
  General SCF calculation program by
  Eric Jon Sundstrom, Paul Horn, Yuezhi Mao, Dmitri Zuev, Alec White,
  David Stuck, Shaama M.S., Shane Yost, Joonho Lee, David Small,
  Daniel Levine, Susi Lehtola, Hugh Burton, Evgeny Epifanovsky,
  Bang C. Huynh
 -----------------------------------------------------------------------
 Hartree-Fock
 A restricted SCF calculation will be
 performed using DIIS
 SCF converges when DIIS error is below 1.0e-08
 ---------------------------------------
  Cycle       Energy         DIIS error
 ---------------------------------------
    1     -75.8884524422      2.50e-01  
    2     -75.9474386303      4.29e-02  
    3     -75.9754122033      2.29e-02  
    4     -75.9832185519      2.19e-03  
    5     -75.9833775418      4.11e-04  
    6     -75.9833845097      5.83e-05  
    7     -75.9833846642      5.61e-06  
    8     -75.9833846654      1.10e-06  
    9     -75.9833846655      1.71e-07  
   10     -75.9833846655      2.11e-08  
   11     -75.9833846655      1.81e-09  Convergence criterion met
 ---------------------------------------
 SCF time:   CPU 0.06s  wall 0.00s 
 SCF   energy in the final basis set =      -75.9833846655
 Total energy in the final basis set =      -75.9833846655
 
 --------------------------------------------------------------
 
                    Orbital Energies (a.u.)
 --------------------------------------------------------------
 
 Alpha MOs
 -- Occupied --
-20.5631  -1.3508  -0.7027  -0.5599  -0.5010
 -- Virtual --
  0.2009   0.2965   1.0502   1.1643   1.1734   1.2177   1.3753   1.6974
 --------------------------------------------------------------
 
          Ground-State Mulliken Net Atomic Charges

     Atom                 Charge (a.u.)
  ----------------------------------------
      1 O                    -0.792448
      2 H                     0.396224
      3 H                     0.396224
  ----------------------------------------
  Sum of atomic charges =     0.000000

 -----------------------------------------------------------------
                    Cartesian Multipole Moments
 -----------------------------------------------------------------
    Charge (ESU x 10^10)
                 0.0000
    Dipole Moment (Debye)
         X       1.5263      Y      -1.2121      Z      -1.7861
       Tot       2.6437
    Quadrupole Moments (Debye-Ang)
        XX      -1.4268     XY      -0.8885     YY      -6.6281
        XZ      -1.4621     YZ       1.0109     ZZ      -5.5631
    Octopole Moments (Debye-Ang^2)
       XXX      -8.7294    XXY      -0.5998    XYY      -7.3418
       YYY      -0.3003    XXZ      -0.7407    XYZ       0.8646
       YYZ       0.3227    XZZ      -6.4476    YZZ      -0.6533
       ZZZ       0.9427
    Hexadecapole Moments (Debye-Ang^3)
      XXXX     -25.2469   XXXY      -0.4345   XXYY     -10.1782
      XYYY      -0.3504   YYYY      -5.5418   XXXZ       0.2345
      XXYZ       0.6565   XYYZ       0.4288   YYYZ      -0.1225
      XXZZ      -9.5413   XYZZ      -0.5331   YYZZ      -1.7006
      XZZZ       1.2275   YZZZ       0.2354   ZZZZ      -5.6443
 -----------------------------------------------------------------
 Electrostatic potential will be computed using the SCF density
   ... ESP and EField will be evaluated at nuclei
  --- DONE ESP SUMMARY ---
 The QM part of the energy is   -75.9833846654808     
 Calculating analytic gradient of the SCF energy
 Gradient of SCF Energy
            1           2           3
    1  -0.0213980   0.0071968   0.0142012
    2   0.0169947  -0.0098885  -0.0071062
    3   0.0250433  -0.0145717  -0.0104716
 Max gradient component =       2.504E-02
 RMS gradient           =       1.527E-02
 Calculating MO derivatives via CPSCF
    1     0    12    0.0618757  
    2     0    12    0.0166761  
    3     0    12    0.0009580  
    4     0    12    0.0000877  
    5    12     0    0.0000000  Converged
 Time for AOints: 0.0 s (CPU) 0.0 s (wall)
 ------------------------------------------------------------------------------
                     AOints        : Timing summary (seconds)
 ------------------------------------------------------------------------------
     job step          cpu (% of tot)      sys (% of tot)     wall (% of tot)
 ------------------------------------------------------------------------------
  AOints            0.5111E-02 ( 6.0)   0.0000E+00 ( 0.0)   0.5122E-02 ( 5.8)
 ------------------------------------------------------------------------------
   Grand Totals     0.8453E-01          0.3000E-05          0.8762E-01
 ------------------------------------------------------------------------------
 Polarizability Matrix (a.u.)
            1           2           3
    1  -6.1189155  -0.6155324  -0.9071101
    2  -0.6155324  -2.6265166  -1.8439661
    3  -0.9071101  -1.8439661  -4.0924859
 Calculating analytic Hessian of the SCF energy
 
 Direct stationary perturbation theory relativistic correction:
 
 rels  =       0.032346929090
 relv  =      -0.111221104733
 rel2e =       0.024217997600
 E_rel =      -0.054656178043
 
i'm in write hessian test
 Hessian of the SCF Energy
            1           2           3           4           5           6
    1   0.5938082   0.0584328   0.0861138  -0.0972772  -0.0891958  -0.1314405
    2   0.0584328   0.1865304   0.2264361  -0.0485002  -0.1562075  -0.2059693
    3   0.0861138   0.2264361   0.3665486  -0.0714713  -0.2059698  -0.3199550
    4  -0.0972772  -0.0485002  -0.0714713   0.1209246   0.0835035   0.1230528
    5  -0.0891958  -0.1562075  -0.2059698   0.0835035   0.1532360   0.2115093
    6  -0.1314405  -0.2059693  -0.3199550   0.1230528   0.2115093   0.3213881
    7  -0.4965310  -0.0099326  -0.0146425  -0.0236475   0.0056922   0.0083877
    8   0.0307630  -0.0303230  -0.0204663  -0.0350033   0.0029715  -0.0055401
    9   0.0453268  -0.0204668  -0.0465936  -0.0515815  -0.0055396  -0.0014330
            7           8           9
    1  -0.4965310   0.0307630   0.0453268
    2  -0.0099326  -0.0303230  -0.0204668
    3  -0.0146425  -0.0204663  -0.0465936
    4  -0.0236475  -0.0350033  -0.0515815
    5   0.0056922   0.0029715  -0.0055396
    6   0.0083877  -0.0055401  -0.0014330
    7   0.5201785   0.0042403   0.0062547
    8   0.0042403   0.0273514   0.0260063
    9   0.0062547   0.0260063   0.0480266
 **********************************************************************
 **                                                                  **
 **                       VIBRATIONAL ANALYSIS                       **
 **                       --------------------                       **
 **                                                                  **
 **        VIBRATIONAL FREQUENCIES (CM**-1) AND NORMAL MODES         **
 **     FORCE CONSTANTS (mDYN/ANGSTROM) AND REDUCED MASSES (AMU)     **
 **                  INFRARED INTENSITIES (KM/MOL)                   **
 **                                                                  **
 **********************************************************************
 

 Mode:                 1                      2                      3
 Frequency:      1851.20                3758.09                3845.82
 Force Cnst:      2.1971                 8.6550                 9.4230
 Red. Mass:       1.0882                 1.0401                 1.0813
 IR Active:          YES                    YES                    YES
 IR Intens:       93.661                  1.152                 21.166
 Raman Active:       YES                    YES                    YES
               X      Y      Z        X      Y      Z        X      Y      Z
 O         -0.042  0.034  0.049   -0.027  0.021  0.031   -0.057 -0.023 -0.033
 H          0.662 -0.137 -0.202   -0.280 -0.364 -0.537    0.203  0.379  0.559
 H          0.009 -0.396 -0.583    0.705  0.027  0.039    0.705 -0.019 -0.028
 TransDip   0.179 -0.142 -0.209    0.020 -0.016 -0.023    0.120  0.048  0.070

 STANDARD THERMODYNAMIC QUANTITIES AT   298.15 K  AND     1.00 ATM

   This Molecule has  0 Imaginary Frequencies
   Zero point vibrational energy:       13.517 kcal/mol

   Atom    1 Element O  Has Mass   15.99491
   Atom    2 Element H  Has Mass    1.00783
   Atom    3 Element H  Has Mass    1.00783
   Molecular Mass:    18.010570 amu
   Principal axes and moments of inertia in amu*Bohr^2:
                             1           2           3
    Eigenvalues --        2.27626     4.19565     6.47191
          X               0.81649    -0.57735     0.00001
          Y               0.32419     0.45848     0.82746
          Z               0.47774     0.67562    -0.56152
   Rotational Symmetry Number is   1
   The Molecule is an Asymmetric Top
   Translational Enthalpy:        0.889 kcal/mol
   Rotational Enthalpy:           0.889 kcal/mol
   Vibrational Enthalpy:         13.517 kcal/mol
   gas constant (RT):             0.592 kcal/mol
   Translational Entropy:        34.608  cal/mol.K
   Rotational Entropy:           11.900  cal/mol.K
   Vibrational Entropy:           0.003  cal/mol.K

   Total Enthalpy:               15.887 kcal/mol
   Total Entropy:                46.511  cal/mol.K
Archival summary:
1\1\nia-login02.scinet.local\FREQ\HF\6-31G\12\clavigne\ThuMar1814:55:552021ThuMar1814:55:552021\0\\#,FREQ,HF,6-31G,\\0,1\O\H,1,0.969003\H,1,0.969006,2,103.978\\HF=-75.9833847\\@

 Total job time:  0.29s(wall), 0.25s(cpu) 
 Thu Mar 18 14:55:55 2021

        *************************************************************
        *                                                           *
        *  Thank you very much for using Q-Chem.  Have a nice day.  *
        *                                                           *
        *************************************************************


